
/*--------------------------------*- C++ -*----------------------------------*| =========                 |                                                 |
| \      /  F ield         | OpenFOAM: The Open Source CFD Toolbox           |
|  \    /   O peration     | Version:  v2012                                 |
|   \  /    A nd           | Website:  www.openfoam.com                      |
|    \/     M anipulation  |                                                 |
\*---------------------------------------------------------------------------*/
FoamFile
{
    version     2.0;
    format      ascii;
    class       pointVectorField;
    object      pointMotionU;
}
// * * * * * * * * * * * * * * * * * * * * * * * * * * * * * * * * * * * * * //

dimensions      [0 1 -1 0 0 0 0];

internalField   uniform (0 0 0);

boundaryField
{
   


            arc1_1
            {
                type            uniformFixedValue;
                uniformValue    (0.04111111 0.07944444 0.        );
            }
        

            arc1_2
            {
                type            uniformFixedValue;
                uniformValue    (0.125      0.23722222 0.        );
            }
        

            arc1_3
            {
                type            uniformFixedValue;
                uniformValue    (0.21333333 0.39166667 0.        );
            }
        

            arc1_4
            {
                type            uniformFixedValue;
                uniformValue    (0.30666667 0.54333333 0.        );
            }
        

            arc1_5
            {
                type            uniformFixedValue;
                uniformValue    (0.40555556 0.69166667 0.        );
            }
        

            arc1_6
            {
                type            uniformFixedValue;
                uniformValue    (0.51       0.83611111 0.        );
            }
        

            arc1_7
            {
                type            uniformFixedValue;
                uniformValue    (0.61888889 0.97777778 0.        );
            }
        

            arc1_8
            {
                type            uniformFixedValue;
                uniformValue    (0.73277778 1.115      0.        );
            }
        

            arc1_9
            {
                type            uniformFixedValue;
                uniformValue    (0.85222222 1.24722222 0.        );
            }
        

            arc1_10
            {
                type            uniformFixedValue;
                uniformValue    (0.97666667 1.375      0.        );
            }
        

            arc1_11
            {
                type            uniformFixedValue;
                uniformValue    (1.10611111 1.49777778 0.        );
            }
        

            arc1_12
            {
                type            uniformFixedValue;
                uniformValue    (1.24055556 1.61555556 0.        );
            }
        

            arc1_13
            {
                type            uniformFixedValue;
                uniformValue    (1.37944444 1.72722222 0.        );
            }
        

            arc1_14
            {
                type            uniformFixedValue;
                uniformValue    (1.52333333 1.83222222 0.        );
            }
        

            arc1_15
            {
                type            uniformFixedValue;
                uniformValue    (1.67111111 1.93166667 0.        );
            }
        

            arc1_16
            {
                type            uniformFixedValue;
                uniformValue    (1.82277778 2.025      0.        );
            }
        

            arc1_17
            {
                type            uniformFixedValue;
                uniformValue    (1.97944444 2.11055556 0.        );
            }
        

            arc1_18
            {
                type            uniformFixedValue;
                uniformValue    (2.14       2.18833333 0.        );
            }
        

            arc1_19
            {
                type            uniformFixedValue;
                uniformValue    (2.30444444 2.25888889 0.        );
            }
        

            arc1_20
            {
                type            uniformFixedValue;
                uniformValue    (2.47166667 2.32111111 0.        );
            }
        

            arc1_21
            {
                type            uniformFixedValue;
                uniformValue    (2.64111111 2.37444444 0.        );
            }
        

            arc1_22
            {
                type            uniformFixedValue;
                uniformValue    (2.81388889 2.41944444 0.        );
            }
        

            arc1_23
            {
                type            uniformFixedValue;
                uniformValue    (2.98888889 2.45611111 0.        );
            }
        

            arc1_24
            {
                type            uniformFixedValue;
                uniformValue    (3.165      2.48333333 0.        );
            }
        

            arc1_25
            {
                type            uniformFixedValue;
                uniformValue    (3.34222222 2.50055556 0.        );
            }
        

            arc1_26
            {
                type            uniformFixedValue;
                uniformValue    (3.52       2.50833333 0.        );
            }
        

            arc1_27
            {
                type            uniformFixedValue;
                uniformValue    (3.69833333 2.50611111 0.        );
            }
        

            arc1_28
            {
                type            uniformFixedValue;
                uniformValue    (3.87666667 2.49333333 0.        );
            }
        

            arc1_29
            {
                type            uniformFixedValue;
                uniformValue    (4.05333333 2.47111111 0.        );
            }
        

            arc1_30
            {
                type            uniformFixedValue;
                uniformValue    (4.22833333 2.43833333 0.        );
            }
        

            arc1_31
            {
                type            uniformFixedValue;
                uniformValue    (4.40111111 2.39444444 0.        );
            }
        

            arc1_32
            {
                type            uniformFixedValue;
                uniformValue    (4.57055556 2.34055556 0.        );
            }
        

            arc1_33
            {
                type            uniformFixedValue;
                uniformValue    (4.73722222 2.27666667 0.        );
            }
        

            arc1_34
            {
                type            uniformFixedValue;
                uniformValue    (4.89944444 2.20277778 0.        );
            }
        

            arc1_35
            {
                type            uniformFixedValue;
                uniformValue    (5.05611111 2.11833333 0.        );
            }
        

            arc1_36
            {
                type            uniformFixedValue;
                uniformValue    (5.20777778 2.02333333 0.        );
            }
        

            arc1_37
            {
                type            uniformFixedValue;
                uniformValue    (5.35222222 1.91888889 0.        );
            }
        

            arc1_38
            {
                type            uniformFixedValue;
                uniformValue    (5.48944444 1.805      0.        );
            }
        

            arc1_39
            {
                type            uniformFixedValue;
                uniformValue    (5.61888889 1.68222222 0.        );
            }
        

            arc1_40
            {
                type            uniformFixedValue;
                uniformValue    (5.73888889 1.55111111 0.        );
            }
        

            arc1_41
            {
                type            uniformFixedValue;
                uniformValue    (5.85       1.41166667 0.        );
            }
        

            arc1_42
            {
                type            uniformFixedValue;
                uniformValue    (5.95055556 1.26444444 0.        );
            }
        

            arc1_43
            {
                type            uniformFixedValue;
                uniformValue    (6.04       1.11055556 0.        );
            }
        

            arc1_44
            {
                type            uniformFixedValue;
                uniformValue    (6.11888889 0.95111111 0.        );
            }
        

            arc1_45
            {
                type            uniformFixedValue;
                uniformValue    (6.18611111 0.78611111 0.        );
            }
        

            arc1_46
            {
                type            uniformFixedValue;
                uniformValue    (6.24055556 0.61666667 0.        );
            }
        

            arc1_47
            {
                type            uniformFixedValue;
                uniformValue    (6.28166667 0.44333333 0.        );
            }
        

            arc1_48
            {
                type            uniformFixedValue;
                uniformValue    (6.30944444 0.26666667 0.        );
            }
        

            arc1_49
            {
                type            uniformFixedValue;
                uniformValue    (6.32333333 0.08888889 0.        );
            }
        

            arc2_1
            {
                type            uniformFixedValue;
                uniformValue    (0. 0. 0.);
            }
        

            arc2_2
            {
                type            uniformFixedValue;
                uniformValue    (0.04055556 0.07888889 0.        );
            }
        

            arc2_3
            {
                type            uniformFixedValue;
                uniformValue    (0.12388889 0.23666667 0.        );
            }
        

            arc2_4
            {
                type            uniformFixedValue;
                uniformValue    (0.21277778 0.39166667 0.        );
            }
        

            arc2_5
            {
                type            uniformFixedValue;
                uniformValue    (0.30722222 0.54333333 0.        );
            }
        

            arc2_6
            {
                type            uniformFixedValue;
                uniformValue    (0.40611111 0.69166667 0.        );
            }
        

            arc2_7
            {
                type            uniformFixedValue;
                uniformValue    (0.51       0.83666667 0.        );
            }
        

            arc2_8
            {
                type            uniformFixedValue;
                uniformValue    (0.61888889 0.97777778 0.        );
            }
        

            arc2_9
            {
                type            uniformFixedValue;
                uniformValue    (0.73277778 1.11444444 0.        );
            }
        

            arc2_10
            {
                type            uniformFixedValue;
                uniformValue    (0.85222222 1.24777778 0.        );
            }
        

            arc2_11
            {
                type            uniformFixedValue;
                uniformValue    (0.97666667 1.37555556 0.        );
            }
        

            arc2_12
            {
                type            uniformFixedValue;
                uniformValue    (1.10611111 1.49833333 0.        );
            }
        

            arc2_13
            {
                type            uniformFixedValue;
                uniformValue    (1.24055556 1.61611111 0.        );
            }
        

            arc2_14
            {
                type            uniformFixedValue;
                uniformValue    (1.37944444 1.72777778 0.        );
            }
        

            arc2_15
            {
                type            uniformFixedValue;
                uniformValue    (1.52277778 1.83333333 0.        );
            }
        

            arc2_16
            {
                type            uniformFixedValue;
                uniformValue    (1.67055556 1.93222222 0.        );
            }
        

            arc2_17
            {
                type            uniformFixedValue;
                uniformValue    (1.82277778 2.025      0.        );
            }
        

            arc2_18
            {
                type            uniformFixedValue;
                uniformValue    (1.97944444 2.11055556 0.        );
            }
        

            arc2_19
            {
                type            uniformFixedValue;
                uniformValue    (2.14       2.18833333 0.        );
            }
        

            arc2_20
            {
                type            uniformFixedValue;
                uniformValue    (2.30388889 2.25888889 0.        );
            }
        

            arc2_21
            {
                type            uniformFixedValue;
                uniformValue    (2.47111111 2.32111111 0.        );
            }
        

            arc2_22
            {
                type            uniformFixedValue;
                uniformValue    (2.64111111 2.375      0.        );
            }
        

            arc2_23
            {
                type            uniformFixedValue;
                uniformValue    (2.81333333 2.42       0.        );
            }
        

            arc2_24
            {
                type            uniformFixedValue;
                uniformValue    (2.98833333 2.45611111 0.        );
            }
        

            arc2_25
            {
                type            uniformFixedValue;
                uniformValue    (3.165      2.48333333 0.        );
            }
        

            arc2_26
            {
                type            uniformFixedValue;
                uniformValue    (3.34222222 2.50055556 0.        );
            }
        

            arc2_27
            {
                type            uniformFixedValue;
                uniformValue    (3.52       2.50777778 0.        );
            }
        

            arc2_28
            {
                type            uniformFixedValue;
                uniformValue    (3.69833333 2.50555556 0.        );
            }
        

            arc2_29
            {
                type            uniformFixedValue;
                uniformValue    (3.87666667 2.49333333 0.        );
            }
        

            arc2_30
            {
                type            uniformFixedValue;
                uniformValue    (4.05277778 2.47111111 0.        );
            }
        

            arc2_31
            {
                type            uniformFixedValue;
                uniformValue    (4.22777778 2.43833333 0.        );
            }
        

            arc2_32
            {
                type            uniformFixedValue;
                uniformValue    (4.40111111 2.39444444 0.        );
            }
        

            arc2_33
            {
                type            uniformFixedValue;
                uniformValue    (4.57111111 2.34111111 0.        );
            }
        

            arc2_34
            {
                type            uniformFixedValue;
                uniformValue    (4.73777778 2.27722222 0.        );
            }
        

            arc2_35
            {
                type            uniformFixedValue;
                uniformValue    (4.89944444 2.20277778 0.        );
            }
        

            arc2_36
            {
                type            uniformFixedValue;
                uniformValue    (5.05611111 2.11833333 0.        );
            }
        

            arc2_37
            {
                type            uniformFixedValue;
                uniformValue    (5.20777778 2.02333333 0.        );
            }
        

            arc2_38
            {
                type            uniformFixedValue;
                uniformValue    (5.35222222 1.91888889 0.        );
            }
        

            arc2_39
            {
                type            uniformFixedValue;
                uniformValue    (5.48888889 1.80555556 0.        );
            }
        

            arc2_40
            {
                type            uniformFixedValue;
                uniformValue    (5.61833333 1.68333333 0.        );
            }
        

            arc2_41
            {
                type            uniformFixedValue;
                uniformValue    (5.73944444 1.55166667 0.        );
            }
        

            arc2_42
            {
                type            uniformFixedValue;
                uniformValue    (5.85055556 1.41166667 0.        );
            }
        

            arc2_43
            {
                type            uniformFixedValue;
                uniformValue    (5.95055556 1.265      0.        );
            }
        

            arc2_44
            {
                type            uniformFixedValue;
                uniformValue    (6.04055556 1.11111111 0.        );
            }
        

            arc2_45
            {
                type            uniformFixedValue;
                uniformValue    (6.11944444 0.95111111 0.        );
            }
        

            arc2_46
            {
                type            uniformFixedValue;
                uniformValue    (6.18611111 0.78611111 0.        );
            }
        

            arc2_47
            {
                type            uniformFixedValue;
                uniformValue    (6.24055556 0.61611111 0.        );
            }
        

            arc2_48
            {
                type            uniformFixedValue;
                uniformValue    (6.28166667 0.44277778 0.        );
            }
        

            arc2_49
            {
                type            uniformFixedValue;
                uniformValue    (6.30944444 0.26666667 0.        );
            }
        

            arc2_50
            {
                type            uniformFixedValue;
                uniformValue    (6.32333333 0.08888889 0.        );
            }
        

            arc3_1
            {
                type            uniformFixedValue;
                uniformValue    (0. 0. 0.);
            }
        

            arc3_2
            {
                type            uniformFixedValue;
                uniformValue    (0.04055556 0.07944444 0.        );
            }
        

            arc3_3
            {
                type            uniformFixedValue;
                uniformValue    (0.12444444 0.23722222 0.        );
            }
        

            arc3_4
            {
                type            uniformFixedValue;
                uniformValue    (0.21333333 0.39166667 0.        );
            }
        

            arc3_5
            {
                type            uniformFixedValue;
                uniformValue    (0.30722222 0.54333333 0.        );
            }
        

            arc3_6
            {
                type            uniformFixedValue;
                uniformValue    (0.40611111 0.69222222 0.        );
            }
        

            arc3_7
            {
                type            uniformFixedValue;
                uniformValue    (0.51       0.83666667 0.        );
            }
        

            arc3_8
            {
                type            uniformFixedValue;
                uniformValue    (0.61888889 0.97777778 0.        );
            }
        

            arc3_9
            {
                type            uniformFixedValue;
                uniformValue    (0.73333333 1.115      0.        );
            }
        

            arc3_10
            {
                type            uniformFixedValue;
                uniformValue    (0.85277778 1.24722222 0.        );
            }
        

            arc3_11
            {
                type            uniformFixedValue;
                uniformValue    (0.97666667 1.375      0.        );
            }
        

            arc3_12
            {
                type            uniformFixedValue;
                uniformValue    (1.10555556 1.49777778 0.        );
            }
        

            arc3_13
            {
                type            uniformFixedValue;
                uniformValue    (1.24       1.61555556 0.        );
            }
        

            arc3_14
            {
                type            uniformFixedValue;
                uniformValue    (1.37944444 1.72722222 0.        );
            }
        

            arc3_15
            {
                type            uniformFixedValue;
                uniformValue    (1.52277778 1.83277778 0.        );
            }
        

            arc3_16
            {
                type            uniformFixedValue;
                uniformValue    (1.67055556 1.93222222 0.        );
            }
        

            arc3_17
            {
                type            uniformFixedValue;
                uniformValue    (1.82333333 2.025      0.        );
            }
        

            arc3_18
            {
                type            uniformFixedValue;
                uniformValue    (1.98       2.11055556 0.        );
            }
        

            arc3_19
            {
                type            uniformFixedValue;
                uniformValue    (2.14       2.18833333 0.        );
            }
        

            arc3_20
            {
                type            uniformFixedValue;
                uniformValue    (2.30388889 2.25833333 0.        );
            }
        

            arc3_21
            {
                type            uniformFixedValue;
                uniformValue    (2.47111111 2.32055556 0.        );
            }
        

            arc3_22
            {
                type            uniformFixedValue;
                uniformValue    (2.64111111 2.375      0.        );
            }
        

            arc3_23
            {
                type            uniformFixedValue;
                uniformValue    (2.81333333 2.42       0.        );
            }
        

            arc3_24
            {
                type            uniformFixedValue;
                uniformValue    (2.98777778 2.45611111 0.        );
            }
        

            arc3_25
            {
                type            uniformFixedValue;
                uniformValue    (3.16388889 2.48277778 0.        );
            }
        

            arc3_26
            {
                type            uniformFixedValue;
                uniformValue    (3.34166667 2.5        0.        );
            }
        

            arc3_27
            {
                type            uniformFixedValue;
                uniformValue    (3.52055556 2.50833333 0.        );
            }
        

            arc3_28
            {
                type            uniformFixedValue;
                uniformValue    (3.69888889 2.50666667 0.        );
            }
        

            arc3_29
            {
                type            uniformFixedValue;
                uniformValue    (3.87611111 2.49388889 0.        );
            }
        

            arc3_30
            {
                type            uniformFixedValue;
                uniformValue    (4.05277778 2.47055556 0.        );
            }
        

            arc3_31
            {
                type            uniformFixedValue;
                uniformValue    (4.22833333 2.43833333 0.        );
            }
        

            arc3_32
            {
                type            uniformFixedValue;
                uniformValue    (4.40111111 2.395      0.        );
            }
        

            arc3_33
            {
                type            uniformFixedValue;
                uniformValue    (4.57111111 2.34055556 0.        );
            }
        

            arc3_34
            {
                type            uniformFixedValue;
                uniformValue    (4.73722222 2.27666667 0.        );
            }
        

            arc3_35
            {
                type            uniformFixedValue;
                uniformValue    (4.89944444 2.20277778 0.        );
            }
        

            arc3_36
            {
                type            uniformFixedValue;
                uniformValue    (5.05666667 2.11833333 0.        );
            }
        

            arc3_37
            {
                type            uniformFixedValue;
                uniformValue    (5.20777778 2.02388889 0.        );
            }
        

            arc3_38
            {
                type            uniformFixedValue;
                uniformValue    (5.35277778 1.91944444 0.        );
            }
        

            arc3_39
            {
                type            uniformFixedValue;
                uniformValue    (5.48944444 1.80555556 0.        );
            }
        

            arc3_40
            {
                type            uniformFixedValue;
                uniformValue    (5.61833333 1.68277778 0.        );
            }
        

            arc3_41
            {
                type            uniformFixedValue;
                uniformValue    (5.73944444 1.55166667 0.        );
            }
        

            arc3_42
            {
                type            uniformFixedValue;
                uniformValue    (5.85055556 1.41277778 0.        );
            }
        

            arc3_43
            {
                type            uniformFixedValue;
                uniformValue    (5.95111111 1.265      0.        );
            }
        

            arc3_44
            {
                type            uniformFixedValue;
                uniformValue    (6.04111111 1.11055556 0.        );
            }
        

            arc3_45
            {
                type            uniformFixedValue;
                uniformValue    (6.11944444 0.95055556 0.        );
            }
        

            arc3_46
            {
                type            uniformFixedValue;
                uniformValue    (6.18611111 0.78555556 0.        );
            }
        

            arc3_47
            {
                type            uniformFixedValue;
                uniformValue    (6.24055556 0.61611111 0.        );
            }
        

            arc3_48
            {
                type            uniformFixedValue;
                uniformValue    (6.28222222 0.44222222 0.        );
            }
        

            arc3_49
            {
                type            uniformFixedValue;
                uniformValue    (6.30944444 0.26611111 0.        );
            }
        

            arc3_50
            {
                type            uniformFixedValue;
                uniformValue    (6.32277778 0.08888889 0.        );
            }
        

            arc4_1
            {
                type            uniformFixedValue;
                uniformValue    (0. 0. 0.);
            }
        

            arc4_2
            {
                type            uniformFixedValue;
                uniformValue    (0.04055556 0.07944444 0.        );
            }
        

            arc4_3
            {
                type            uniformFixedValue;
                uniformValue    (0.12444444 0.23666667 0.        );
            }
        

            arc4_4
            {
                type            uniformFixedValue;
                uniformValue    (0.21333333 0.39111111 0.        );
            }
        

            arc4_5
            {
                type            uniformFixedValue;
                uniformValue    (0.30666667 0.54333333 0.        );
            }
        

            arc4_6
            {
                type            uniformFixedValue;
                uniformValue    (0.40555556 0.69222222 0.        );
            }
        

            arc4_7
            {
                type            uniformFixedValue;
                uniformValue    (0.51       0.83722222 0.        );
            }
        

            arc4_8
            {
                type            uniformFixedValue;
                uniformValue    (0.61888889 0.97777778 0.        );
            }
        

            arc4_9
            {
                type            uniformFixedValue;
                uniformValue    (0.73277778 1.11444444 0.        );
            }
        

            arc4_10
            {
                type            uniformFixedValue;
                uniformValue    (0.85222222 1.24722222 0.        );