
/*--------------------------------*- C++ -*----------------------------------*| =========                 |                                                 |
| \      /  F ield         | OpenFOAM: The Open Source CFD Toolbox           |
|  \    /   O peration     | Version:  v2012                                 |
|   \  /    A nd           | Website:  www.openfoam.com                      |
|    \/     M anipulation  |                                                 |
\*---------------------------------------------------------------------------*/
FoamFile
{
    version     2.0;
    format      ascii;
    class       pointVectorField;
    object      pointMotionU;
}
// * * * * * * * * * * * * * * * * * * * * * * * * * * * * * * * * * * * * * //

dimensions      [0 1 -1 0 0 0 0];

internalField   uniform (0 0 0);

boundaryField
{
   


            arc1_1
            {
                type            uniformFixedValue;
                uniformValue    (4.79629630e-06 9.26851852e-06 0.00000000e+00);
            }
        

            arc1_2
            {
                type            uniformFixedValue;
                uniformValue    (1.45833333e-05 2.76759259e-05 0.00000000e+00);
            }
        

            arc1_3
            {
                type            uniformFixedValue;
                uniformValue    (2.48888889e-05 4.56944444e-05 0.00000000e+00);
            }
        

            arc1_4
            {
                type            uniformFixedValue;
                uniformValue    (3.57777778e-05 6.33888889e-05 0.00000000e+00);
            }
        

            arc1_5
            {
                type            uniformFixedValue;
                uniformValue    (4.73148148e-05 8.06944444e-05 0.00000000e+00);
            }
        

            arc1_6
            {
                type            uniformFixedValue;
                uniformValue    (5.95000000e-05 9.75462963e-05 0.00000000e+00);
            }
        

            arc1_7
            {
                type            uniformFixedValue;
                uniformValue    (7.22037037e-05 1.14074074e-04 0.00000000e+00);
            }
        

            arc1_8
            {
                type            uniformFixedValue;
                uniformValue    (8.54907407e-05 1.30083333e-04 0.00000000e+00);
            }
        

            arc1_9
            {
                type            uniformFixedValue;
                uniformValue    (9.94259259e-05 1.45509259e-04 0.00000000e+00);
            }
        

            arc1_10
            {
                type            uniformFixedValue;
                uniformValue    (0.00011394 0.00016042 0.        );
            }
        

            arc1_11
            {
                type            uniformFixedValue;
                uniformValue    (0.00012905 0.00017474 0.        );
            }
        

            arc1_12
            {
                type            uniformFixedValue;
                uniformValue    (0.00014473 0.00018848 0.        );
            }
        

            arc1_13
            {
                type            uniformFixedValue;
                uniformValue    (0.00016094 0.00020151 0.        );
            }
        

            arc1_14
            {
                type            uniformFixedValue;
                uniformValue    (0.00017772 0.00021376 0.        );
            }
        

            arc1_15
            {
                type            uniformFixedValue;
                uniformValue    (0.00019496 0.00022536 0.        );
            }
        

            arc1_16
            {
                type            uniformFixedValue;
                uniformValue    (0.00021266 0.00023625 0.        );
            }
        

            arc1_17
            {
                type            uniformFixedValue;
                uniformValue    (0.00023094 0.00024623 0.        );
            }
        

            arc1_18
            {
                type            uniformFixedValue;
                uniformValue    (0.00024967 0.00025531 0.        );
            }
        

            arc1_19
            {
                type            uniformFixedValue;
                uniformValue    (0.00026885 0.00026354 0.        );
            }
        

            arc1_20
            {
                type            uniformFixedValue;
                uniformValue    (0.00028836 0.0002708  0.        );
            }
        

            arc1_21
            {
                type            uniformFixedValue;
                uniformValue    (0.00030813 0.00027702 0.        );
            }
        

            arc1_22
            {
                type            uniformFixedValue;
                uniformValue    (0.00032829 0.00028227 0.        );
            }
        

            arc1_23
            {
                type            uniformFixedValue;
                uniformValue    (0.0003487  0.00028655 0.        );
            }
        

            arc1_24
            {
                type            uniformFixedValue;
                uniformValue    (0.00036925 0.00028972 0.        );
            }
        

            arc1_25
            {
                type            uniformFixedValue;
                uniformValue    (0.00038993 0.00029173 0.        );
            }
        

            arc1_26
            {
                type            uniformFixedValue;
                uniformValue    (0.00041067 0.00029264 0.        );
            }
        

            arc1_27
            {
                type            uniformFixedValue;
                uniformValue    (0.00043147 0.00029238 0.        );
            }
        

            arc1_28
            {
                type            uniformFixedValue;
                uniformValue    (0.00045228 0.00029089 0.        );
            }
        

            arc1_29
            {
                type            uniformFixedValue;
                uniformValue    (0.00047289 0.0002883  0.        );
            }
        

            arc1_30
            {
                type            uniformFixedValue;
                uniformValue    (0.00049331 0.00028447 0.        );
            }
        

            arc1_31
            {
                type            uniformFixedValue;
                uniformValue    (0.00051346 0.00027935 0.        );
            }
        

            arc1_32
            {
                type            uniformFixedValue;
                uniformValue    (0.00053323 0.00027306 0.        );
            }
        

            arc1_33
            {
                type            uniformFixedValue;
                uniformValue    (0.00055268 0.00026561 0.        );
            }
        

            arc1_34
            {
                type            uniformFixedValue;
                uniformValue    (0.0005716  0.00025699 0.        );
            }
        

            arc1_35
            {
                type            uniformFixedValue;
                uniformValue    (0.00058988 0.00024714 0.        );
            }
        

            arc1_36
            {
                type            uniformFixedValue;
                uniformValue    (0.00060757 0.00023606 0.        );
            }
        

            arc1_37
            {
                type            uniformFixedValue;
                uniformValue    (0.00062443 0.00022387 0.        );
            }
        

            arc1_38
            {
                type            uniformFixedValue;
                uniformValue    (0.00064044 0.00021058 0.        );
            }
        

            arc1_39
            {
                type            uniformFixedValue;
                uniformValue    (0.00065554 0.00019626 0.        );
            }
        

            arc1_40
            {
                type            uniformFixedValue;
                uniformValue    (0.00066954 0.00018096 0.        );
            }
        

            arc1_41
            {
                type            uniformFixedValue;
                uniformValue    (0.0006825  0.00016469 0.        );
            }
        

            arc1_42
            {
                type            uniformFixedValue;
                uniformValue    (0.00069423 0.00014752 0.        );
            }
        

            arc1_43
            {
                type            uniformFixedValue;
                uniformValue    (0.00070467 0.00012956 0.        );
            }
        

            arc1_44
            {
                type            uniformFixedValue;
                uniformValue    (0.00071387 0.00011096 0.        );
            }
        

            arc1_45
            {
                type            uniformFixedValue;
                uniformValue    (7.21712963e-04 9.17129630e-05 0.00000000e+00);
            }
        

            arc1_46
            {
                type            uniformFixedValue;
                uniformValue    (7.28064815e-04 7.19444444e-05 0.00000000e+00);
            }
        

            arc1_47
            {
                type            uniformFixedValue;
                uniformValue    (7.32861111e-04 5.17222222e-05 0.00000000e+00);
            }
        

            arc1_48
            {
                type            uniformFixedValue;
                uniformValue    (7.36101852e-04 3.11111111e-05 0.00000000e+00);
            }
        

            arc1_49
            {
                type            uniformFixedValue;
                uniformValue    (7.37722222e-04 1.03703704e-05 0.00000000e+00);
            }
        

            arc2_1
            {
                type            uniformFixedValue;
                uniformValue    (0. 0. 0.);
            }
        

            arc2_2
            {
                type            uniformFixedValue;
                uniformValue    (4.73148148e-06 9.20370370e-06 0.00000000e+00);
            }
        

            arc2_3
            {
                type            uniformFixedValue;
                uniformValue    (1.44537037e-05 2.76111111e-05 0.00000000e+00);
            }
        

            arc2_4
            {
                type            uniformFixedValue;
                uniformValue    (2.48240741e-05 4.56944444e-05 0.00000000e+00);
            }
        

            arc2_5
            {
                type            uniformFixedValue;
                uniformValue    (3.58425926e-05 6.33888889e-05 0.00000000e+00);
            }
        

            arc2_6
            {
                type            uniformFixedValue;
                uniformValue    (4.73796296e-05 8.06944444e-05 0.00000000e+00);
            }
        

            arc2_7
            {
                type            uniformFixedValue;
                uniformValue    (5.95000000e-05 9.76111111e-05 0.00000000e+00);
            }
        

            arc2_8
            {
                type            uniformFixedValue;
                uniformValue    (7.22037037e-05 1.14074074e-04 0.00000000e+00);
            }
        

            arc2_9
            {
                type            uniformFixedValue;
                uniformValue    (8.54907407e-05 1.30018519e-04 0.00000000e+00);
            }
        

            arc2_10
            {
                type            uniformFixedValue;
                uniformValue    (9.94259259e-05 1.45574074e-04 0.00000000e+00);
            }
        

            arc2_11
            {
                type            uniformFixedValue;
                uniformValue    (0.00011394 0.00016048 0.        );
            }
        

            arc2_12
            {
                type            uniformFixedValue;
                uniformValue    (0.00012905 0.00017481 0.        );
            }
        

            arc2_13
            {
                type            uniformFixedValue;
                uniformValue    (0.00014473 0.00018855 0.        );
            }
        

            arc2_14
            {
                type            uniformFixedValue;
                uniformValue    (0.00016094 0.00020157 0.        );
            }
        

            arc2_15
            {
                type            uniformFixedValue;
                uniformValue    (0.00017766 0.00021389 0.        );
            }
        

            arc2_16
            {
                type            uniformFixedValue;
                uniformValue    (0.0001949  0.00022543 0.        );
            }
        

            arc2_17
            {
                type            uniformFixedValue;
                uniformValue    (0.00021266 0.00023625 0.        );
            }
        

            arc2_18
            {
                type            uniformFixedValue;
                uniformValue    (0.00023094 0.00024623 0.        );
            }
        

            arc2_19
            {
                type            uniformFixedValue;
                uniformValue    (0.00024967 0.00025531 0.        );
            }
        

            arc2_20
            {
                type            uniformFixedValue;
                uniformValue    (0.00026879 0.00026354 0.        );
            }
        

            arc2_21
            {
                type            uniformFixedValue;
                uniformValue    (0.0002883 0.0002708 0.       );
            }
        

            arc2_22
            {
                type            uniformFixedValue;
                uniformValue    (0.00030813 0.00027708 0.        );
            }
        

            arc2_23
            {
                type            uniformFixedValue;
                uniformValue    (0.00032822 0.00028233 0.        );
            }
        

            arc2_24
            {
                type            uniformFixedValue;
                uniformValue    (0.00034864 0.00028655 0.        );
            }
        

            arc2_25
            {
                type            uniformFixedValue;
                uniformValue    (0.00036925 0.00028972 0.        );
            }
        

            arc2_26
            {
                type            uniformFixedValue;
                uniformValue    (0.00038993 0.00029173 0.        );
            }
        

            arc2_27
            {
                type            uniformFixedValue;
                uniformValue    (0.00041067 0.00029257 0.        );
            }
        

            arc2_28
            {
                type            uniformFixedValue;
                uniformValue    (0.00043147 0.00029231 0.        );
            }
        

            arc2_29
            {
                type            uniformFixedValue;
                uniformValue    (0.00045228 0.00029089 0.        );
            }
        

            arc2_30
            {
                type            uniformFixedValue;
                uniformValue    (0.00047282 0.0002883  0.        );
            }
        

            arc2_31
            {
                type            uniformFixedValue;
                uniformValue    (0.00049324 0.00028447 0.        );
            }
        

            arc2_32
            {
                type            uniformFixedValue;
                uniformValue    (0.00051346 0.00027935 0.        );
            }
        

            arc2_33
            {
                type            uniformFixedValue;
                uniformValue    (0.0005333  0.00027313 0.        );
            }
        

            arc2_34
            {
                type            uniformFixedValue;
                uniformValue    (0.00055274 0.00026568 0.        );
            }
        

            arc2_35
            {
                type            uniformFixedValue;
                uniformValue    (0.0005716  0.00025699 0.        );
            }
        

            arc2_36
            {
                type            uniformFixedValue;
                uniformValue    (0.00058988 0.00024714 0.        );
            }
        

            arc2_37
            {
                type            uniformFixedValue;
                uniformValue    (0.00060757 0.00023606 0.        );
            }
        

            arc2_38
            {
                type            uniformFixedValue;
                uniformValue    (0.00062443 0.00022387 0.        );
            }
        

            arc2_39
            {
                type            uniformFixedValue;
                uniformValue    (0.00064037 0.00021065 0.        );
            }
        

            arc2_40
            {
                type            uniformFixedValue;
                uniformValue    (0.00065547 0.00019639 0.        );
            }
        

            arc2_41
            {
                type            uniformFixedValue;
                uniformValue    (0.0006696  0.00018103 0.        );
            }
        

            arc2_42
            {
                type            uniformFixedValue;
                uniformValue    (0.00068256 0.00016469 0.        );
            }
        

            arc2_43
            {
                type            uniformFixedValue;
                uniformValue    (0.00069423 0.00014758 0.        );
            }
        

            arc2_44
            {
                type            uniformFixedValue;
                uniformValue    (0.00070473 0.00012963 0.        );
            }
        

            arc2_45
            {
                type            uniformFixedValue;
                uniformValue    (0.00071394 0.00011096 0.        );
            }
        

            arc2_46
            {
                type            uniformFixedValue;
                uniformValue    (7.21712963e-04 9.17129630e-05 0.00000000e+00);
            }
        

            arc2_47
            {
                type            uniformFixedValue;
                uniformValue    (7.28064815e-04 7.18796296e-05 0.00000000e+00);
            }
        

            arc2_48
            {
                type            uniformFixedValue;
                uniformValue    (7.32861111e-04 5.16574074e-05 0.00000000e+00);
            }
        

            arc2_49
            {
                type            uniformFixedValue;
                uniformValue    (7.36101852e-04 3.11111111e-05 0.00000000e+00);
            }
        

            arc2_50
            {
                type            uniformFixedValue;
                uniformValue    (7.37722222e-04 1.03703704e-05 0.00000000e+00);
            }
        

            arc3_1
            {
                type            uniformFixedValue;
                uniformValue    (0. 0. 0.);
            }
        

            arc3_2
            {
                type            uniformFixedValue;
                uniformValue    (4.73148148e-06 9.26851852e-06 0.00000000e+00);
            }
        

            arc3_3
            {
                type            uniformFixedValue;
                uniformValue    (1.45185185e-05 2.76759259e-05 0.00000000e+00);
            }
        

            arc3_4
            {
                type            uniformFixedValue;
                uniformValue    (2.48888889e-05 4.56944444e-05 0.00000000e+00);
            }
        

            arc3_5
            {
                type            uniformFixedValue;
                uniformValue    (3.58425926e-05 6.33888889e-05 0.00000000e+00);
            }
        

            arc3_6
            {
                type            uniformFixedValue;
                uniformValue    (4.73796296e-05 8.07592593e-05 0.00000000e+00);
            }
        

            arc3_7
            {
                type            uniformFixedValue;
                uniformValue    (5.95000000e-05 9.76111111e-05 0.00000000e+00);
            }
        

            arc3_8
            {
                type            uniformFixedValue;
                uniformValue    (7.22037037e-05 1.14074074e-04 0.00000000e+00);
            }
        

            arc3_9
            {
                type            uniformFixedValue;
                uniformValue    (8.55555556e-05 1.30083333e-04 0.00000000e+00);
            }
        

            arc3_10
            {
                type            uniformFixedValue;
                uniformValue    (9.94907407e-05 1.45509259e-04 0.00000000e+00);
            }
        

            arc3_11
            {
                type            uniformFixedValue;
                uniformValue    (0.00011394 0.00016042 0.        );
            }
        

            arc3_12
            {
                type            uniformFixedValue;
                uniformValue    (0.00012898 0.00017474 0.        );
            }
        

            arc3_13
            {
                type            uniformFixedValue;
                uniformValue    (0.00014467 0.00018848 0.        );
            }
        

            arc3_14
            {
                type            uniformFixedValue;
                uniformValue    (0.00016094 0.00020151 0.        );
            }
        

            arc3_15
            {
                type            uniformFixedValue;
                uniformValue    (0.00017766 0.00021382 0.        );
            }
        

            arc3_16
            {
                type            uniformFixedValue;
                uniformValue    (0.0001949  0.00022543 0.        );
            }
        

            arc3_17
            {
                type            uniformFixedValue;
                uniformValue    (0.00021272 0.00023625 0.        );
            }
        

            arc3_18
            {
                type            uniformFixedValue;
                uniformValue    (0.000231   0.00024623 0.        );
            }
        

            arc3_19
            {
                type            uniformFixedValue;
                uniformValue    (0.00024967 0.00025531 0.        );
            }
        

            arc3_20
            {
                type            uniformFixedValue;
                uniformValue    (0.00026879 0.00026347 0.        );
            }
        

            arc3_21
            {
                type            uniformFixedValue;
                uniformValue    (0.0002883  0.00027073 0.        );
            }
        

            arc3_22
            {
                type            uniformFixedValue;
                uniformValue    (0.00030813 0.00027708 0.        );
            }
        

            arc3_23
            {
                type            uniformFixedValue;
                uniformValue    (0.00032822 0.00028233 0.        );
            }
        

            arc3_24
            {
                type            uniformFixedValue;
                uniformValue    (0.00034857 0.00028655 0.        );
            }
        

            arc3_25
            {
                type            uniformFixedValue;
                uniformValue    (0.00036912 0.00028966 0.        );
            }
        

            arc3_26
            {
                type            uniformFixedValue;
                uniformValue    (0.00038986 0.00029167 0.        );
            }
        

            arc3_27
            {
                type            uniformFixedValue;
                uniformValue    (0.00041073 0.00029264 0.        );
            }
        

            arc3_28
            {
                type            uniformFixedValue;
                uniformValue    (0.00043154 0.00029244 0.        );
            }
        

            arc3_29
            {
                type            uniformFixedValue;
                uniformValue    (0.00045221 0.00029095 0.        );
            }
        

            arc3_30
            {
                type            uniformFixedValue;
                uniformValue    (0.00047282 0.00028823 0.        );
            }
        

            arc3_31
            {
                type            uniformFixedValue;
                uniformValue    (0.00049331 0.00028447 0.        );
            }
        

            arc3_32
            {
                type            uniformFixedValue;
                uniformValue    (0.00051346 0.00027942 0.        );
            }
        

            arc3_33
            {
                type            uniformFixedValue;
                uniformValue    (0.0005333  0.00027306 0.        );
            }
        

            arc3_34
            {
                type            uniformFixedValue;
                uniformValue    (0.00055268 0.00026561 0.        );
            }
        

            arc3_35
            {
                type            uniformFixedValue;
                uniformValue    (0.0005716  0.00025699 0.        );
            }
        

            arc3_36
            {
                type            uniformFixedValue;
                uniformValue    (0.00058994 0.00024714 0.        );
            }
        

            arc3_37
            {
                type            uniformFixedValue;
                uniformValue    (0.00060757 0.00023612 0.        );
            }
        

            arc3_38
            {
                type            uniformFixedValue;
                uniformValue    (0.00062449 0.00022394 0.        );
            }
        

            arc3_39
            {
                type            uniformFixedValue;
                uniformValue    (0.00064044 0.00021065 0.        );
            }
        

            arc3_40
            {
                type            uniformFixedValue;
                uniformValue    (0.00065547 0.00019632 0.        );
            }
        

            arc3_41
            {
                type            uniformFixedValue;
                uniformValue    (0.0006696  0.00018103 0.        );
            }
        

            arc3_42
            {
                type            uniformFixedValue;
                uniformValue    (0.00068256 0.00016482 0.        );
            }
        

            arc3_43
            {
                type            uniformFixedValue;
                uniformValue    (0.0006943  0.00014758 0.        );
            }
        

            arc3_44
            {
                type            uniformFixedValue;
                uniformValue    (0.0007048  0.00012956 0.        );
            }
        

            arc3_45
            {
                type            uniformFixedValue;
                uniformValue    (0.00071394 0.0001109  0.        );
            }
        

            arc3_46
            {
                type            uniformFixedValue;
                uniformValue    (7.21712963e-04 9.16481481e-05 0.00000000e+00);
            }
        

            arc3_47
            {
                type            uniformFixedValue;
                uniformValue    (7.28064815e-04 7.18796296e-05 0.00000000e+00);
            }
        

            arc3_48
            {
                type            uniformFixedValue;
                uniformValue    (7.32925926e-04 5.15925926e-05 0.00000000e+00);
            }
        

            arc3_49
            {
                type            uniformFixedValue;
                uniformValue    (7.36101852e-04 3.10462963e-05 0.00000000e+00);
            }
        

            arc3_50
            {
                type            uniformFixedValue;
                uniformValue    (7.37657407e-04 1.03703704e-05 0.00000000e+00);
            }
        

            arc4_1
            {
                type            uniformFixedValue;
                uniformValue    (0. 0. 0.);
            }
        

            arc4_2
            {
                type            uniformFixedValue;
                uniformValue    (4.73148148e-06 9.26851852e-06 0.00000000e+00);
            }
        

            arc4_3
            {
                type            uniformFixedValue;
                uniformValue    (1.45185185e-05 2.76111111e-05 0.00000000e+00);
            }
        

            arc4_4
            {
                type            uniformFixedValue;
                uniformValue    (2.48888889e-05 4.56296296e-05 0.00000000e+00);
            }
        

            arc4_5
            {
                type            uniformFixedValue;
                uniformValue    (3.57777778e-05 6.33888889e-05 0.00000000e+00);
            }
        

            arc4_6
            {
                type            uniformFixedValue;
                uniformValue    (4.73148148e-05 8.07592593e-05 0.00000000e+00);
            }
        

            arc4_7
            {
                type            uniformFixedValue;