
/*--------------------------------*- C++ -*----------------------------------*| =========                 |                                                 |
| \      /  F ield         | OpenFOAM: The Open Source CFD Toolbox           |
|  \    /   O peration     | Version:  v2012                                 |
|   \  /    A nd           | Website:  www.openfoam.com                      |
|    \/     M anipulation  |                                                 |
\*---------------------------------------------------------------------------*/
FoamFile
{
    version     2.0;
    format      ascii;
    class       pointVectorField;
    object      pointMotionU;
}
// * * * * * * * * * * * * * * * * * * * * * * * * * * * * * * * * * * * * * //

dimensions      [0 1 -1 0 0 0 0];

internalField   uniform (0 0 0);

boundaryField
{
    ".*"
    {
        type            uniformFixedValue;
        uniformValue    (0, 0, 0);
    }
   


            arc1_1
            {
                type            uniformFixedValue;
                uniformValue    (6.84444444e-06 1.30666667e-05 0.00000000e+00);
            }
        

            arc1_2
            {
                type            uniformFixedValue;
                uniformValue    (2.05333333e-05 3.98222222e-05 0.00000000e+00);
            }
        

            arc1_3
            {
                type            uniformFixedValue;
                uniformValue    (3.54666667e-05 6.59555556e-05 0.00000000e+00);
            }
        

            arc1_4
            {
                type            uniformFixedValue;
                uniformValue    (5.16444444e-05 9.14666667e-05 0.00000000e+00);
            }
        

            arc1_5
            {
                type            uniformFixedValue;
                uniformValue    (6.84444444e-05 1.16355556e-04 0.00000000e+00);
            }
        

            arc1_6
            {
                type            uniformFixedValue;
                uniformValue    (8.58666667e-05 1.40622222e-04 0.00000000e+00);
            }
        

            arc1_7
            {
                type            uniformFixedValue;
                uniformValue    (0.00010391 0.00016427 0.        );
            }
        

            arc1_8
            {
                type            uniformFixedValue;
                uniformValue    (0.00012258 0.00018729 0.        );
            }
        

            arc1_9
            {
                type            uniformFixedValue;
                uniformValue    (0.00014249 0.00020969 0.        );
            }
        

            arc1_10
            {
                type            uniformFixedValue;
                uniformValue    (0.00016364 0.00023084 0.        );
            }
        

            arc1_11
            {
                type            uniformFixedValue;
                uniformValue    (0.00018604 0.000252   0.        );
            }
        

            arc1_12
            {
                type            uniformFixedValue;
                uniformValue    (0.00020907 0.00027191 0.        );
            }
        

            arc1_13
            {
                type            uniformFixedValue;
                uniformValue    (0.00023209 0.00029058 0.        );
            }
        

            arc1_14
            {
                type            uniformFixedValue;
                uniformValue    (0.00025636 0.00030862 0.        );
            }
        

            arc1_15
            {
                type            uniformFixedValue;
                uniformValue    (0.00028124 0.0003248  0.        );
            }
        

            arc1_16
            {
                type            uniformFixedValue;
                uniformValue    (0.00030613 0.00033973 0.        );
            }
        

            arc1_17
            {
                type            uniformFixedValue;
                uniformValue    (0.00033227 0.00035467 0.        );
            }
        

            arc1_18
            {
                type            uniformFixedValue;
                uniformValue    (0.00035902 0.00036773 0.        );
            }
        

            arc1_19
            {
                type            uniformFixedValue;
                uniformValue    (0.0003864  0.00037956 0.        );
            }
        

            arc1_20
            {
                type            uniformFixedValue;
                uniformValue    (0.00041502 0.00039013 0.        );
            }
        

            arc1_21
            {
                type            uniformFixedValue;
                uniformValue    (0.00044364 0.00039884 0.        );
            }
        

            arc1_22
            {
                type            uniformFixedValue;
                uniformValue    (0.00047227 0.00040631 0.        );
            }
        

            arc1_23
            {
                type            uniformFixedValue;
                uniformValue    (0.00050151 0.00041253 0.        );
            }
        

            arc1_24
            {
                type            uniformFixedValue;
                uniformValue    (0.00053138 0.00041751 0.        );
            }
        

            arc1_25
            {
                type            uniformFixedValue;
                uniformValue    (0.00056124 0.00042    0.        );
            }
        

            arc1_26
            {
                type            uniformFixedValue;
                uniformValue    (0.00059111 0.00042124 0.        );
            }
        

            arc1_27
            {
                type            uniformFixedValue;
                uniformValue    (0.00062098 0.00042124 0.        );
            }
        

            arc1_28
            {
                type            uniformFixedValue;
                uniformValue    (0.00065084 0.00041938 0.        );
            }
        

            arc1_29
            {
                type            uniformFixedValue;
                uniformValue    (0.00068071 0.00041564 0.        );
            }
        

            arc1_30
            {
                type            uniformFixedValue;
                uniformValue    (0.00071058 0.00041004 0.        );
            }
        

            arc1_31
            {
                type            uniformFixedValue;
                uniformValue    (0.00073982 0.0004032  0.        );
            }
        

            arc1_32
            {
                type            uniformFixedValue;
                uniformValue    (0.00076844 0.00039387 0.        );
            }
        

            arc1_33
            {
                type            uniformFixedValue;
                uniformValue    (0.00079644 0.00038267 0.        );
            }
        

            arc1_34
            {
                type            uniformFixedValue;
                uniformValue    (0.0008232  0.00037022 0.        );
            }
        

            arc1_35
            {
                type            uniformFixedValue;
                uniformValue    (0.00084933 0.00035591 0.        );
            }
        

            arc1_36
            {
                type            uniformFixedValue;
                uniformValue    (0.00087484 0.00033973 0.        );
            }
        

            arc1_37
            {
                type            uniformFixedValue;
                uniformValue    (0.00089911 0.00032231 0.        );
            }
        

            arc1_38
            {
                type            uniformFixedValue;
                uniformValue    (0.00092213 0.00030364 0.        );
            }
        

            arc1_39
            {
                type            uniformFixedValue;
                uniformValue    (0.00094391 0.00028311 0.        );
            }
        

            arc1_40
            {
                type            uniformFixedValue;
                uniformValue    (0.00096444 0.00026071 0.        );
            }
        

            arc1_41
            {
                type            uniformFixedValue;
                uniformValue    (0.00098311 0.00023707 0.        );
            }
        

            arc1_42
            {
                type            uniformFixedValue;
                uniformValue    (0.00099991 0.00021218 0.        );
            }
        

            arc1_43
            {
                type            uniformFixedValue;
                uniformValue    (0.00101484 0.00018604 0.        );
            }
        

            arc1_44
            {
                type            uniformFixedValue;
                uniformValue    (0.00102791 0.00015929 0.        );
            }
        

            arc1_45
            {
                type            uniformFixedValue;
                uniformValue    (0.00103911 0.00013191 0.        );
            }
        

            arc1_46
            {
                type            uniformFixedValue;
                uniformValue    (0.00104782 0.00010329 0.        );
            }
        

            arc1_47
            {
                type            uniformFixedValue;
                uniformValue    (1.05528889e-03 7.40444444e-05 0.00000000e+00);
            }
        

            arc1_48
            {
                type            uniformFixedValue;
                uniformValue    (1.06026667e-03 4.48000000e-05 0.00000000e+00);
            }
        

            arc1_49
            {
                type            uniformFixedValue;
                uniformValue    (1.06213333e-03 1.49333333e-05 0.00000000e+00);
            }
        

            arc2_1
            {
                type            uniformFixedValue;
                uniformValue    (0. 0. 0.);
            }
        

            arc2_2
            {
                type            uniformFixedValue;
                uniformValue    (6.84444444e-06 1.30666667e-05 0.00000000e+00);
            }
        

            arc2_3
            {
                type            uniformFixedValue;
                uniformValue    (2.05333333e-05 3.98222222e-05 0.00000000e+00);
            }
        

            arc2_4
            {
                type            uniformFixedValue;
                uniformValue    (3.48444444e-05 6.59555556e-05 0.00000000e+00);
            }
        

            arc2_5
            {
                type            uniformFixedValue;
                uniformValue    (5.10222222e-05 9.14666667e-05 0.00000000e+00);
            }
        

            arc2_6
            {
                type            uniformFixedValue;
                uniformValue    (6.84444444e-05 1.16977778e-04 0.00000000e+00);
            }
        

            arc2_7
            {
                type            uniformFixedValue;
                uniformValue    (8.58666667e-05 1.40622222e-04 0.00000000e+00);
            }
        

            arc2_8
            {
                type            uniformFixedValue;
                uniformValue    (0.00010391 0.00016364 0.        );
            }
        

            arc2_9
            {
                type            uniformFixedValue;
                uniformValue    (0.00012258 0.00018667 0.        );
            }
        

            arc2_10
            {
                type            uniformFixedValue;
                uniformValue    (0.00014311 0.00020907 0.        );
            }
        

            arc2_11
            {
                type            uniformFixedValue;
                uniformValue    (0.00016489 0.00023147 0.        );
            }
        

            arc2_12
            {
                type            uniformFixedValue;
                uniformValue    (0.00018604 0.000252   0.        );
            }
        

            arc2_13
            {
                type            uniformFixedValue;
                uniformValue    (0.00020844 0.00027067 0.        );
            }
        

            arc2_14
            {
                type            uniformFixedValue;
                uniformValue    (0.00023147 0.00028996 0.        );
            }
        

            arc2_15
            {
                type            uniformFixedValue;
                uniformValue    (0.00025573 0.00030862 0.        );
            }
        

            arc2_16
            {
                type            uniformFixedValue;
                uniformValue    (0.00028124 0.0003248  0.        );
            }
        

            arc2_17
            {
                type            uniformFixedValue;
                uniformValue    (0.00030613 0.00033973 0.        );
            }
        

            arc2_18
            {
                type            uniformFixedValue;
                uniformValue    (0.00033227 0.00035467 0.        );
            }
        

            arc2_19
            {
                type            uniformFixedValue;
                uniformValue    (0.00035964 0.00036836 0.        );
            }
        

            arc2_20
            {
                type            uniformFixedValue;
                uniformValue    (0.00038702 0.00037956 0.        );
            }
        

            arc2_21
            {
                type            uniformFixedValue;
                uniformValue    (0.00041502 0.00038951 0.        );
            }
        

            arc2_22
            {
                type            uniformFixedValue;
                uniformValue    (0.00044364 0.00039884 0.        );
            }
        

            arc2_23
            {
                type            uniformFixedValue;
                uniformValue    (0.00047227 0.00040693 0.        );
            }
        

            arc2_24
            {
                type            uniformFixedValue;
                uniformValue    (0.00050151 0.00041316 0.        );
            }
        

            arc2_25
            {
                type            uniformFixedValue;
                uniformValue    (0.00053138 0.00041689 0.        );
            }
        

            arc2_26
            {
                type            uniformFixedValue;
                uniformValue    (0.00056124 0.00041938 0.        );
            }
        

            arc2_27
            {
                type            uniformFixedValue;
                uniformValue    (0.00059111 0.00042124 0.        );
            }
        

            arc2_28
            {
                type            uniformFixedValue;
                uniformValue    (0.00062098 0.00042124 0.        );
            }
        

            arc2_29
            {
                type            uniformFixedValue;
                uniformValue    (0.00065084 0.00041938 0.        );
            }
        

            arc2_30
            {
                type            uniformFixedValue;
                uniformValue    (0.00068071 0.00041564 0.        );
            }
        

            arc2_31
            {
                type            uniformFixedValue;
                uniformValue    (0.00071058 0.00040942 0.        );
            }
        

            arc2_32
            {
                type            uniformFixedValue;
                uniformValue    (0.00073982 0.00040196 0.        );
            }
        

            arc2_33
            {
                type            uniformFixedValue;
                uniformValue    (0.00076782 0.00039324 0.        );
            }
        

            arc2_34
            {
                type            uniformFixedValue;
                uniformValue    (0.0007952  0.00038267 0.        );
            }
        

            arc2_35
            {
                type            uniformFixedValue;
                uniformValue    (0.00082258 0.00037022 0.        );
            }
        

            arc2_36
            {
                type            uniformFixedValue;
                uniformValue    (0.00084933 0.00035591 0.        );
            }
        

            arc2_37
            {
                type            uniformFixedValue;
                uniformValue    (0.00087484 0.00033973 0.        );
            }
        

            arc2_38
            {
                type            uniformFixedValue;
                uniformValue    (0.00089911 0.00032169 0.        );
            }
        

            arc2_39
            {
                type            uniformFixedValue;
                uniformValue    (0.00092213 0.0003024  0.        );
            }
        

            arc2_40
            {
                type            uniformFixedValue;
                uniformValue    (0.00094391 0.00028249 0.        );
            }
        

            arc2_41
            {
                type            uniformFixedValue;
                uniformValue    (0.00096382 0.00026071 0.        );
            }
        

            arc2_42
            {
                type            uniformFixedValue;
                uniformValue    (0.00098249 0.00023707 0.        );
            }
        

            arc2_43
            {
                type            uniformFixedValue;
                uniformValue    (0.00099991 0.0002128  0.        );
            }
        

            arc2_44
            {
                type            uniformFixedValue;
                uniformValue    (0.00101484 0.00018667 0.        );
            }
        

            arc2_45
            {
                type            uniformFixedValue;
                uniformValue    (0.00102791 0.00015929 0.        );
            }
        

            arc2_46
            {
                type            uniformFixedValue;
                uniformValue    (0.00103911 0.00013191 0.        );
            }
        

            arc2_47
            {
                type            uniformFixedValue;
                uniformValue    (0.00104782 0.00010391 0.        );
            }
        

            arc2_48
            {
                type            uniformFixedValue;
                uniformValue    (1.05466667e-03 7.46666667e-05 0.00000000e+00);
            }
        

            arc2_49
            {
                type            uniformFixedValue;
                uniformValue    (1.05964444e-03 4.48000000e-05 0.00000000e+00);
            }
        

            arc2_50
            {
                type            uniformFixedValue;
                uniformValue    (1.06213333e-03 1.49333333e-05 0.00000000e+00);
            }
        

            arc3_1
            {
                type            uniformFixedValue;
                uniformValue    (0. 0. 0.);
            }
        

            arc3_2
            {
                type            uniformFixedValue;
                uniformValue    (6.84444444e-06 1.36888889e-05 0.00000000e+00);
            }
        

            arc3_3
            {
                type            uniformFixedValue;
                uniformValue    (2.05333333e-05 3.98222222e-05 0.00000000e+00);
            }
        

            arc3_4
            {
                type            uniformFixedValue;
                uniformValue    (3.54666667e-05 6.53333333e-05 0.00000000e+00);
            }
        

            arc3_5
            {
                type            uniformFixedValue;
                uniformValue    (5.16444444e-05 9.08444444e-05 0.00000000e+00);
            }
        

            arc3_6
            {
                type            uniformFixedValue;
                uniformValue    (6.84444444e-05 1.15733333e-04 0.00000000e+00);
            }
        

            arc3_7
            {
                type            uniformFixedValue;
                uniformValue    (8.58666667e-05 1.40622222e-04 0.00000000e+00);
            }
        

            arc3_8
            {
                type            uniformFixedValue;
                uniformValue    (0.00010391 0.00016427 0.        );
            }
        

            arc3_9
            {
                type            uniformFixedValue;
                uniformValue    (0.0001232  0.00018729 0.        );
            }
        

            arc3_10
            {
                type            uniformFixedValue;
                uniformValue    (0.00014311 0.00020969 0.        );
            }
        

            arc3_11
            {
                type            uniformFixedValue;
                uniformValue    (0.00016364 0.00023084 0.        );
            }
        

            arc3_12
            {
                type            uniformFixedValue;
                uniformValue    (0.00018542 0.00025138 0.        );
            }
        

            arc3_13
            {
                type            uniformFixedValue;
                uniformValue    (0.00020844 0.00027129 0.        );
            }
        

            arc3_14
            {
                type            uniformFixedValue;
                uniformValue    (0.00023209 0.00028996 0.        );
            }
        

            arc3_15
            {
                type            uniformFixedValue;
                uniformValue    (0.00025573 0.00030738 0.        );
            }
        

            arc3_16
            {
                type            uniformFixedValue;
                uniformValue    (0.00028062 0.0003248  0.        );
            }
        

            arc3_17
            {
                type            uniformFixedValue;
                uniformValue    (0.00030613 0.00034098 0.        );
            }
        

            arc3_18
            {
                type            uniformFixedValue;
                uniformValue    (0.00033227 0.00035467 0.        );
            }
        

            arc3_19
            {
                type            uniformFixedValue;
                uniformValue    (0.00035964 0.00036773 0.        );
            }
        

            arc3_20
            {
                type            uniformFixedValue;
                uniformValue    (0.00038702 0.00037956 0.        );
            }
        

            arc3_21
            {
                type            uniformFixedValue;
                uniformValue    (0.00041502 0.00038951 0.        );
            }
        

            arc3_22
            {
                type            uniformFixedValue;
                uniformValue    (0.00044364 0.00039884 0.        );
            }
        

            arc3_23
            {
                type            uniformFixedValue;
                uniformValue    (0.00047289 0.00040631 0.        );
            }
        

            arc3_24
            {
                type            uniformFixedValue;
                uniformValue    (0.00050213 0.00041191 0.        );
            }
        

            arc3_25
            {
                type            uniformFixedValue;
                uniformValue    (0.00053138 0.00041689 0.        );
            }
        

            arc3_26
            {
                type            uniformFixedValue;
                uniformValue    (0.00056124 0.00042    0.        );
            }
        

            arc3_27
            {
                type            uniformFixedValue;
                uniformValue    (0.00059111 0.00042124 0.        );
            }
        

            arc3_28
            {
                type            uniformFixedValue;
                uniformValue    (0.0006216  0.00042124 0.        );
            }
        

            arc3_29
            {
                type            uniformFixedValue;
                uniformValue    (0.00065209 0.00041876 0.        );
            }
        

            arc3_30
            {
                type            uniformFixedValue;
                uniformValue    (0.00068133 0.00041502 0.        );
            }
        

            arc3_31
            {
                type            uniformFixedValue;
                uniformValue    (0.00071058 0.00041004 0.        );
            }
        

            arc3_32
            {
                type            uniformFixedValue;
                uniformValue    (0.00073982 0.00040258 0.        );
            }
        

            arc3_33
            {
                type            uniformFixedValue;
                uniformValue    (0.00076782 0.00039324 0.        );
            }
        

            arc3_34
            {
                type            uniformFixedValue;
                uniformValue    (0.00079582 0.00038267 0.        );
            }
        

            arc3_35
            {
                type            uniformFixedValue;
                uniformValue    (0.0008232  0.00037022 0.        );
            }
        

            arc3_36
            {
                type            uniformFixedValue;
                uniformValue    (0.00084933 0.00035591 0.        );
            }
        

            arc3_37
            {
                type            uniformFixedValue;
                uniformValue    (0.00087484 0.00034036 0.        );
            }
        

            arc3_38
            {
                type            uniformFixedValue;
                uniformValue    (0.00089911 0.00032231 0.        );
            }
        

            arc3_39
            {
                type            uniformFixedValue;
                uniformValue    (0.00092213 0.0003024  0.        );
            }
        

            arc3_40
            {
                type            uniformFixedValue;
                uniformValue    (0.00094391 0.00028249 0.        );
            }
        

            arc3_41
            {
                type            uniformFixedValue;
                uniformValue    (0.00096444 0.00026071 0.        );
            }
        

            arc3_42
            {
                type            uniformFixedValue;
                uniformValue    (0.00098311 0.00023707 0.        );
            }
        

            arc3_43
            {
                type            uniformFixedValue;
                uniformValue    (0.00099991 0.0002128  0.        );
            }
        

            arc3_44
            {
                type            uniformFixedValue;
                uniformValue    (0.00101547 0.00018729 0.        );
            }
        

            arc3_45
            {
                type            uniformFixedValue;
                uniformValue    (0.00102853 0.00015991 0.        );
            }
        

            arc3_46
            {
                type            uniformFixedValue;
                uniformValue    (0.00103973 0.00013191 0.        );
            }
        

            arc3_47
            {
                type            uniformFixedValue;
                uniformValue    (0.00104907 0.00010329 0.        );
            }
        

            arc3_48
            {
                type            uniformFixedValue;
                uniformValue    (1.05528889e-03 7.40444444e-05 0.00000000e+00);
            }
        

            arc3_49
            {
                type            uniformFixedValue;
                uniformValue    (1.05964444e-03 4.48000000e-05 0.00000000e+00);
            }
        

            arc3_50
            {
                type            uniformFixedValue;
                uniformValue    (1.06213333e-03 1.49333333e-05 0.00000000e+00);
            }
        

            arc4_1
            {
                type            uniformFixedValue;
                uniformValue    (0. 0. 0.);
            }
        

            arc4_2
            {
                type            uniformFixedValue;
                uniformValue    (6.84444444e-06 1.30666667e-05 0.00000000e+00);
            }
        

            arc4_3
            {
                type            uniformFixedValue;
                uniformValue    (2.11555556e-05 3.92000000e-05 0.00000000e+00);
            }
        

            arc4_4
            {
                type            uniformFixedValue;
                uniformValue    (3.60888889e-05 6.53333333e-05 0.00000000e+00);
            }
        

            arc4_5
            {
                type            uniformFixedValue;
                uniformValue    (5.16444444e-05 9.08444444e-05 0.00000000e+00);
            }
        

            arc4_6
            {
                type            uniformFixedValue;
                uniformValue    (6.78222222e-05 1.15733333e-04 0.00000000e+00);
            }
        

            arc4_7
            {
                type            uniformFixedValue;
                uniformValue    (8.52444444e-05 1.40000000e-04 0.00000000e+00);
            }
        

            arc4_8