
/*--------------------------------*- C++ -*----------------------------------*  =========                 |
  \      /  F ield         | OpenFOAM: The Open Source CFD Toolbox
   \    /   O peration     | Website:  https://openfoam.org
    \  /    A nd           | Version:  6
     \/     M anipulation  |
\*---------------------------------------------------------------------------*/
FoamFile
{
    version     2.0;
    format      ascii;
    class       volScalarField;
    location    "0";
    object      zoneID;
}
// * * * * * * * * * * * * * * * * * * * * * * * * * * * * * * * * * * * * * //

dimensions      [0 0 0 0 0 0 0];

internalField   uniform 0;

boundaryField
{
    ".*"
    {{
        type            zeroGradient;
    }}

  "arc2_1|arc2_2|arc2_3|arc2_4|arc2_5|arc2_6|arc2_7|arc2_8|arc2_9|arc2_10|arc2_11|arc2_12|arc2_13|arc2_14|arc2_15|arc2_16|arc2_17|arc2_18|arc2_19|arc2_20|arc2_21|arc2_22|arc2_23|arc2_24|arc2_25|arc2_26|arc2_27|arc2_28|arc2_29|arc2_30|arc2_31|arc2_32|arc2_33|arc2_34|arc2_35|arc2_36|arc2_37|arc2_38|arc2_39|arc2_40|arc2_41|arc2_42|arc2_43|arc2_44|arc2_45|arc2_46|arc2_47|arc2_48|arc2_49|arc1_50"
  {
      type            overset;
  }
  "arc4_1|arc4_2|arc4_3|arc4_4|arc4_5|arc4_6|arc4_7|arc4_8|arc4_9|arc4_10|arc4_11|arc4_12|arc4_13|arc4_14|arc4_15|arc4_16|arc4_17|arc4_18|arc4_19|arc4_20|arc4_21|arc4_22|arc4_23|arc4_24|arc4_25|arc4_26|arc4_27|arc4_28|arc4_29|arc4_30|arc4_31|arc4_32|arc4_33|arc4_34|arc4_35|arc4_36|arc4_37|arc4_38|arc4_39|arc4_40|arc4_41|arc4_42|arc4_43|arc4_44|arc4_45|arc4_46|arc4_47|arc4_48|arc4_49|arc3_50"
  {
      type            overset;
  }
}
// * * * * * * * * * * * * * * * * * * * * * * * * * * * * * * * * * * * * * //