
/*--------------------------------*- C++ -*----------------------------------*  =========                 |
  \      /  F ield         | OpenFOAM: The Open Source CFD Toolbox
   \    /   O peration     | Website:  https://openfoam.org
    \  /    A nd           | Version:  6
     \/     M anipulation  |
\*---------------------------------------------------------------------------*/
FoamFile
{
    version     2.0;
    format      ascii;
    class       volScalarField;
    location    "0";
    object      zoneID;
}
// * * * * * * * * * * * * * * * * * * * * * * * * * * * * * * * * * * * * * //

dimensions      [0 0 0 0 0 0 0];

internalField   uniform 0;

boundaryField
{
    ".*"
    {{
        type            zeroGradient;
    }}

  "arc2_1|arc2_2|arc2_3|arc2_4|arc2_5|arc2_6|arc2_7|arc2_8|arc2_9|arc2_10|arc2_11|arc2_12|arc2_13|arc2_14|arc2_15|arc2_16|arc2_17|arc2_18|arc2_19|arc2_20|arc2_21|arc2_22|arc2_23|arc2_24|arc2_25|arc2_26|arc2_27|arc2_28|arc2_29|arc2_30|arc2_31|arc2_32|arc2_33|arc2_34|arc2_35|arc2_36|arc2_37|arc2_38|arc2_39|arc2_40|arc2_41|arc2_42|arc2_43|arc2_44|arc2_45|arc2_46|arc2_47|arc2_48|arc2_49|arc2_50"
  {
      type            overset;
  }
arc3_1|arc3_2|arc3_3|arc3_4|arc3_5|arc3_6|arc3_7|arc3_8|arc3_9|arc3_10|arc3_11|arc3_12|arc3_13|arc3_14|arc3_15|arc3_16|arc3_17|arc3_18|arc3_19|arc3_20|arc3_21|arc3_22|arc3_23|arc3_24|arc3_25|arc3_26|arc3_27|arc3_28|arc3_29|arc3_30|arc3_31|arc3_32|arc3_33|arc3_34|arc3_35|arc3_36|arc3_37|arc3_38|arc3_39|arc3_40|arc3_41|arc3_42|arc3_43|arc3_44|arc3_45|arc3_46|arc3_47|arc3_48|arc3_49|arc3_50"
  {
      type            overset;
  }
}
// * * * * * * * * * * * * * * * * * * * * * * * * * * * * * * * * * * * * * //