/*--------------------------------*- C++ -*----------------------------------*\
| =========                 |                                                 |
| \\      /  F ield         | OpenFOAM: The Open Source CFD Toolbox           |
|  \\    /   O peration     | Version:  2206                                  |
|   \\  /    A nd           | Website:  www.openfoam.com                      |
|    \\/     M anipulation  |                                                 |
\*---------------------------------------------------------------------------*/
FoamFile
{
    version     2.0;
    format      ascii;
    arch        "LSB;label=32;scalar=64";
    class       volScalarField;
    location    "0.06";
    object      alpha.water;
}
// * * * * * * * * * * * * * * * * * * * * * * * * * * * * * * * * * * * * * //

dimensions      [0 0 0 0 0 0 0];

internalField   nonuniform List<scalar> 
332316
(
0.991647
0.999738
0.999825
0.999383
0.999594
0.999922
0.999956
0.99997
0.999973
0.999971
0.999916
0.999891
0.999949
0.992665
0.998512
0.998846
0.998997
0.999818
0.999973
0.999973
0.999973
0.999973
0.999964
0.99986
0.999735
0.99987
0.99299
0.993257
0.996541
0.9991
0.999884
0.999973
0.999973
0.999973
0.999973
0.999948
0.999783
0.999369
0.999645
0.991077
0.983797
0.994408
0.997744
0.99934
0.999937
0.999973
0.999973
0.999973
0.999928
0.999673
0.998943
0.999026
0.980711
0.976139
0.990984
0.994031
0.997314
0.999566
0.999971
0.999973
0.999973
0.999914
0.99958
0.998854
0.998307
0.963982
0.969858
0.983734
0.990752
0.995828
0.999172
0.999938
0.999973
0.999973
0.999906
0.999321
0.998413
0.997638
0.944734
0.964673
0.984479
0.989426
0.995963
0.999231
0.99987
0.999971
0.999973
0.999922
0.999456
0.999155
0.998337
0.988148
0.999827
0.999981
0.999746
0.999292
0.999665
0.999963
0.999973
0.999973
0.999906
0.99963
0.999525
0.999795
0.990845
0.999795
0.999889
0.999034
0.999146
0.999865
0.999973
0.999973
0.999973
0.999855
0.999124
0.998334
0.999365
0.99249
0.999296
0.999209
0.998055
0.999362
0.999949
0.999973
0.999973
0.999973
0.999802
0.998078
0.995942
0.998166
0.993063
0.995826
0.99684
0.9979
0.998953
0.999816
0.999973
0.999973
0.99997
0.99975
0.996901
0.99514
0.995858
0.990095
0.98664
0.994409
0.995997
0.996743
0.999152
0.999939
0.999973
0.999966
0.999703
0.996485
0.99514
0.99514
0.969142
0.978469
0.987554
0.991392
0.994329
0.998462
0.999813
0.999973
0.999962
0.99959
0.997064
0.99514
0.99514
0.944753
0.977606
0.987451
0.990494
0.994062
0.998127
0.999642
0.999972
0.999961
0.999666
0.998028
0.995657
0.99514
0.983725
0.999801
0.99999
0.99996
0.999825
0.999413
0.999823
0.99997
0.999968
0.999753
0.998024
0.998183
0.999404
0.987908
0.999793
0.999988
0.999891
0.999335
0.999413
0.9999
0.999973
0.999949
0.99948
0.996511
0.996212
0.998477
0.990685
0.999809
0.99997
0.999573
0.998626
0.999513
0.999951
0.999973
0.999932
0.998925
0.995551
0.99514
0.996542
0.992505
0.999559
0.999728
0.998661
0.998113
0.999416
0.999949
0.999973
0.999916
0.998199
0.99514
0.99514
0.99514
0.993015
0.997735
0.998091
0.997977
0.99746
0.998752
0.999832
0.999973
0.999905
0.997924
0.99514
0.99514
0.99514
0.985191
0.990395
0.993405
0.994642
0.995583
0.997794
0.99962
0.999973
0.999902
0.997921
0.99514
0.99514
0.99514
0.944754
0.983493
0.990233
0.99387
0.995032
0.99787
0.999686
0.999973
0.999922
0.998607
0.99518
0.99514
0.99514
0.979586
0.999833
0.999993
0.999957
0.999922
0.999565
0.999468
0.99968
0.999613
0.999235
0.997711
0.997691
0.999011
0.985236
0.999753
0.999994
0.999957
0.999808
0.999105
0.999467
0.999872
0.99977
0.998922
0.996749
0.996854
0.998394
0.98852
0.999738
0.999994
0.999951
0.999472
0.998802
0.999649
0.99994
0.999769
0.997718
0.99514
0.99514
0.99704
0.991217
0.999756
0.99997
0.999824
0.998724
0.9988
0.99973
0.999949
0.999631
0.996323
0.99514
0.99514
0.995243
0.992802
0.999619
0.999726
0.999112
0.998175
0.998541
0.999657
0.999935
0.999513
0.995881
0.99514
0.99514
0.99514
0.99083
0.998746
0.998174
0.997501
0.996592
0.997787
0.999673
0.999945
0.999474
0.995854
0.99514
0.99514
0.99514
0.965885
0.992706
0.994995
0.995034
0.995658
0.998455
0.999857
0.999963
0.999723
0.996389
0.99514
0.99514
0.99514
0.976101
0.999919
0.999995
0.999973
0.999923
0.99994
0.999507
0.999499
0.999479
0.998957
0.997562
0.997751
0.998919
0.983404
0.999812
0.999994
0.999991
0.999942
0.999752
0.999182
0.999247
0.999214
0.99839
0.996572
0.997045
0.998432
0.986976
0.999727
0.999993
0.999992
0.999935
0.999266
0.999067
0.99923
0.998983
0.9976
0.99514
0.995568
0.997749
0.989671
0.999683
0.999987
0.999975
0.999782
0.998672
0.999066
0.999409
0.99886
0.995878
0.99514
0.99514
0.996276
0.992142
0.999675
0.999956
0.999893
0.999202
0.998542
0.999308
0.999445
0.998187
0.99514
0.99514
0.99514
0.99514
0.993293
0.999412
0.99969
0.999399
0.998284
0.998551
0.999689
0.999717
0.997387
0.99514
0.99514
0.99514
0.99514
0.992461
0.996982
0.997874
0.997669
0.997705
0.998921
0.999741
0.999699
0.997808
0.99514
0.99514
0.99514
0.99514
0.973643
0.999956
0.999995
0.999995
0.999989
0.99999
0.999914
0.999809
0.999799
0.999448
0.998188
0.998155
0.999118
0.982368
0.999881
0.999995
0.999995
0.999991
0.999965
0.999784
0.999756
0.99965
0.999013
0.997438
0.9973
0.998803
0.986344
0.99982
0.999994
0.999996
0.99998
0.999874
0.999443
0.999505
0.999408
0.9984
0.995947
0.99674
0.99857
0.988772
0.999688
0.999986
0.999996
0.999939
0.999585
0.998863
0.999091
0.998994
0.997078
0.99514
0.995671
0.997992
0.991214
0.99959
0.999975
0.999983
0.999844
0.999181
0.998308
0.998642
0.998475
0.995768
0.99514
0.99514
0.996718
0.99327
0.99955
0.999929
0.999903
0.999539
0.999072
0.998307
0.99825
0.997564
0.99514
0.99514
0.99514
0.995843
0.993653
0.999571
0.999723
0.999534
0.999178
0.998687
0.998668
0.998583
0.996646
0.99514
0.99514
0.99514
0.9953
0.972657
0.999975
0.999995
0.999995
0.999995
0.999975
0.999885
0.999905
0.999855
0.999835
0.999166
0.99864
0.999293
0.981987
0.999904
0.999995
0.999996
0.999991
0.999965
0.999762
0.999906
0.999863
0.999683
0.998749
0.997952
0.998975
0.986244
0.999876
0.999995
0.999996
0.999972
0.999953
0.999612
0.999817
0.999875
0.999454
0.997729
0.998065
0.998959
0.988511
0.999812
0.999987
0.999996
0.999956
0.999888
0.999589
0.999684
0.99973
0.998993
0.996239
0.997335
0.999049
0.990568
0.999713
0.999978
0.999995
0.999955
0.99971
0.999459
0.999541
0.999531
0.998183
0.995229
0.996354
0.998695
0.99273
0.999667
0.999976
0.999989
0.999911
0.999364
0.999021
0.999251
0.999258
0.997112
0.99514
0.995493
0.998133
0.994076
0.999735
0.999979
0.999972
0.999814
0.999037
0.998984
0.999176
0.998894
0.996122
0.99514
0.99514
0.997344
0.974088
0.999985
0.999995
0.999995
0.999993
0.999885
0.999851
0.999967
0.999843
0.999841
0.999655
0.999028
0.999197
0.98313
0.999913
0.999995
0.999995
0.999972
0.999861
0.999852
0.999923
0.999901
0.99982
0.999641
0.998991
0.998956
0.987269
0.999892
0.999995
0.999995
0.99995
0.999869
0.999895
0.999866
0.999923
0.999848
0.999383
0.999015
0.999017
0.988949
0.999868
0.999994
0.999996
0.999977
0.999872
0.999837
0.999823
0.999923
0.99979
0.998856
0.998563
0.999286
0.99039
0.99979
0.999985
0.999996
0.999987
0.999811
0.999785
0.999873
0.999923
0.999602
0.997984
0.99834
0.99936
0.992255
0.999713
0.999972
0.999996
0.999976
0.999757
0.999774
0.999876
0.999893
0.99932
0.997183
0.997925
0.999247
0.994197
0.999702
0.999979
0.999992
0.999942
0.999746
0.999675
0.999829
0.999861
0.998903
0.996106
0.997002
0.999117
0.977798
0.999986
0.999996
0.999995
0.999989
0.999841
0.99993
0.999975
0.999891
0.99971
0.999498
0.999393
0.998956
0.985434
0.999916
0.999996
0.999996
0.999976
0.999841
0.999963
0.999912
0.999917
0.999664
0.999271
0.999271
0.998956
0.988624
0.999896
0.999996
0.999995
0.999987
0.999846
0.999965
0.999803
0.999923
0.999892
0.999641
0.999264
0.999153
0.990126
0.999898
0.999996
0.999996
0.999995
0.99988
0.999889
0.999725
0.999918
0.999926
0.999793
0.99915
0.999256
0.990787
0.999863
0.999992
0.999996
0.999995
0.999893
0.999785
0.999818
0.999926
0.999926
0.999622
0.999074
0.999314
0.991971
0.999774
0.999967
0.999996
0.99999
0.99984
0.999737
0.99989
0.999926
0.999899
0.999395
0.999037
0.999293
0.994168
0.999772
0.999942
0.999994
0.999973
0.999745
0.999863
0.999926
0.999926
0.999869
0.998955
0.998802
0.999242
0.982352
0.999981
0.999996
0.999995
0.999995
0.999849
0.999884
0.999964
0.99998
0.999822
0.99971
0.999756
0.999454
0.987675
0.999918
0.999996
0.999996
0.999995
0.999915
0.999971
0.99988
0.999957
0.999759
0.99954
0.999521
0.999406
0.989916
0.999896
0.999996
0.999996
0.999996
0.999973
0.999979
0.999755
0.999894
0.999854
0.999848
0.999611
0.999528
0.991162
0.999911
0.999996
0.999996
0.999996
0.999984
0.99992
0.999724
0.999853
0.999926
0.999926
0.999724
0.999568
0.991666
0.999914
0.999995
0.999996
0.999996
0.999969
0.999792
0.999724
0.999858
0.999926
0.999926
0.999709
0.999549
0.991878
0.999814
0.999982
0.999996
0.999994
0.999882
0.999719
0.999724
0.999893
0.999926
0.999926
0.999724
0.999547
0.993959
0.999765
0.999936
0.999989
0.999979
0.999762
0.999719
0.999766
0.999924
0.999926
0.999903
0.999721
0.999521
0.988028
0.999959
0.999996
0.999996
0.999996
0.999973
0.999915
0.999938
0.99998
0.99995
0.999909
0.999876
0.999881
0.990072
0.999918
0.999996
0.999996
0.999996
0.999993
0.999978
0.999883
0.999967
0.999948
0.999801
0.999716
0.999803
0.991319
0.999891
0.999995
0.999996
0.999996
0.999996
0.99999
0.999927
0.999898
0.999848
0.999688
0.999827
0.999827
0.992242
0.999917
0.999996
0.999996
0.999996
0.999996
0.999967
0.999934
0.999812
0.999763
0.999827
0.999871
0.999864
0.992406
0.99994
0.999995
0.999996
0.999995
0.999986
0.999929
0.999894
0.999764
0.999763
0.999871
0.999871
0.999863
0.992108
0.999853
0.999992
0.999996
0.999992
0.999953
0.999831
0.999791
0.999886
0.999903
0.999891
0.999871
0.99988
0.99373
0.999707
0.999985
0.999989
0.999987
0.999926
0.999719
0.99976
0.999912
0.999907
0.999888
0.999862
0.999892
0.990904
0.999942
0.999995
0.999996
0.999996
0.99999
0.999944
0.999932
0.99998
0.999953
0.999958
0.999965
0.999954
0.99181
0.999903
0.99999
0.999996
0.999996
0.999996
0.999976
0.99997
0.999977
0.999949
0.999871
0.999892
0.999946
0.992665
0.999887
0.999993
0.999996
0.999996
0.999996
0.999978
0.999982
0.999936
0.999891
0.999688
0.999768
0.999946
0.993315
0.999919
0.999996
0.999996
0.999996
0.999996
0.999933
0.999977
0.999884
0.999767
0.999558
0.999651
0.999923
0.993217
0.999952
0.999992
0.999995
0.999983
0.999981
0.999898
0.99995
0.999878
0.999697
0.999441
0.999473
0.999853
0.992633
0.999895
0.999991
0.999986
0.999957
0.999934
0.999879
0.999925
0.999906
0.999809
0.999377
0.999386
0.999799
0.993598
0.999683
0.999988
0.999993
0.999987
0.999921
0.999859
0.999911
0.9999
0.99983
0.999371
0.999448
0.999824
0.992868
0.99993
0.999973
0.999996
0.999996
0.999972
0.999936
0.999898
0.99998
0.999926
0.999952
0.999976
0.999976
0.993376
0.999884
0.999968
0.999996
0.999996
0.999992
0.99996
0.999968
0.999981
0.999943
0.999863
0.999884
0.99997
0.993949
0.999882
0.999989
0.999996
0.999996
0.999996
0.99996
0.999982
0.999974
0.999926
0.999631
0.999598
0.99989
0.994284
0.999918
0.999996
0.999996
0.999996
0.999996
0.999909
0.999974
0.999938
0.999807
0.999233
0.998981
0.999693
0.99403
0.999957
0.999988
0.999987
0.999974
0.999979
0.999826
0.999937
0.999885
0.999611
0.998819
0.998763
0.999501
0.993058
0.999927
0.999964
0.999943
0.999895
0.9999
0.999768
0.999925
0.999878
0.999432
0.998763
0.998763
0.999382
0.993554
0.999677
0.999955
0.999986
0.999979
0.999819
0.999823
0.999925
0.999885
0.999361
0.998763
0.998763
0.999381
0.994574
0.999891
0.999924
0.999997
0.999995
0.999942
0.999937
0.999805
0.999963
0.999936
0.999942
0.999967
0.999976
0.994813
0.999859
0.99995
0.999996
0.999996
0.999979
0.999962
0.999947
0.999981
0.999965
0.999859
0.999784
0.999918
0.995094
0.999872
0.999987
0.999996
0.999996
0.999992
0.999966
0.99998
0.999981
0.999958
0.999685
0.999215
0.999635
0.995149
0.999918
0.999996
0.999996
0.999993
0.999993
0.999967
0.999972
0.999965
0.999875
0.999123
0.998763
0.999079
0.994746
0.99996
0.999986
0.999981
0.999973
0.999971
0.999907
0.999915
0.999904
0.999659
0.998763
0.998763
0.998879
0.99345
0.999945
0.999918
0.999888
0.999887
0.999887
0.999768
0.999864
0.999841
0.999381
0.998763
0.998763
0.998883
0.993625
0.999679
0.999915
0.999964
0.999974
0.999833
0.99976
0.999881
0.999874
0.999351
0.998763
0.998763
0.998897
0.995725
0.999851
0.999904
0.999997
0.999992
0.999926
0.999954
0.999783
0.999936
0.999982
0.999902
0.999923
0.99993
0.995852
0.999833
0.999948
0.999993
0.999993
0.999973
0.999986
0.99994
0.999975
0.999984
0.999881
0.999605
0.99958
0.995948
0.999861
0.999984
0.999992
0.999996
0.999983
0.99999
0.999977
0.999981
0.999968
0.999769
0.998974
0.998801
0.995886
0.999917
0.999996
0.999991
0.999991
0.999981
0.99999
0.999984
0.999964
0.99992
0.999359
0.998763
0.998763
0.995326
0.99996
0.999988
0.999972
0.999974
0.99994
0.999984
0.999922
0.999933
0.999854
0.99905
0.998763
0.998763
0.993798
0.999953
0.999891
0.999888
0.999887
0.999887
0.999911
0.99982
0.999913
0.999816
0.998946
0.998763
0.998763
0.993833
0.999712
0.999923
0.999958
0.999973
0.999977
0.99976
0.999793
0.999913
0.999798
0.998914
0.998763
0.998831
0.996485
0.99978
0.999968
0.999997
0.999991
0.99993
0.999929
0.999794
0.999909
0.999985
0.999944
0.999887
0.999754
0.996547
0.999792
0.999963
0.999984
0.99999
0.999974
0.99992
0.999922
0.99995
0.999985
0.999945
0.999654
0.999062
0.996559
0.99985
0.99998
0.999985
0.999995
0.999974
0.999943
0.99997
0.999967
0.99997
0.999879
0.999245
0.998763
0.996435
0.999916
0.999995
0.999987
0.999991
0.999968
0.99999
0.999988
0.999948
0.999927
0.999738
0.998905
0.998763
0.995782
0.99996
0.999991
0.999954
0.999962
0.999888
0.999973
0.999925
0.999919
0.999895
0.999614
0.99878
0.998763
0.994094
0.999956
0.999933
0.999944
0.999916
0.999889
0.999918
0.999787
0.999891
0.999895
0.999578
0.998845
0.998763
0.994014
0.999758
0.999974
0.999973
0.999975
0.99998
0.999779
0.999746
0.99989
0.999894
0.999574
0.998799
0.999047
0.996778
0.999758
0.999994
0.99999
0.999985
0.999955
0.999638
0.999741
0.999876
0.999985
0.999985
0.999917
0.999751
0.996873
0.999779
0.999986
0.999981
0.999991
0.99997
0.999584
0.999864
0.999939
0.999985
0.999974
0.999837
0.999208
0.996878
0.999843
0.999986
0.999989
0.999995
0.999978
0.999847
0.99995
0.999972
0.999973
0.999945
0.999611
0.99897
0.996764
0.999911
0.999995
0.999987
0.999992
0.999965
0.999938
0.999984
0.999953
0.999945
0.999915
0.99932
0.998763
0.996116
0.999956
0.999993
0.999919
0.999923
0.999849
0.999905
0.999926
0.999895
0.999925
0.999899
0.999521
0.998763
0.994341
0.999958
0.999986
0.999972
0.99997
0.999905
0.99989
0.999794
0.999806
0.999918
0.9999
0.999639
0.999058
0.994195
0.999795
0.999984
0.999983
0.99998
0.99998
0.999847
0.999746
0.999766
0.999918
0.999899
0.999603
0.999614
0.996966
0.999801
0.999997
0.999991
0.999987
0.999961
0.998904
0.999519
0.999851
0.999985
0.99999
0.999961
0.999807
0.997089
0.999811
0.999993
0.999981
0.999993
0.999964
0.9991
0.999776
0.999945
0.999985
0.999975
0.999846
0.999656
0.997094
0.999854
0.999993
0.99999
0.999995
0.999979
0.999751
0.999919
0.999979
0.999974
0.99995
0.999602
0.999421
0.996988
0.999908
0.999997
0.999988
0.999993
0.999966
0.999846
0.999959
0.999979
0.999927
0.999922
0.999592
0.998764
0.996346
0.999952
0.999997
0.999918
0.999887
0.999848
0.999847
0.999944
0.999949
0.999849
0.999886
0.999852
0.999412
0.994543
0.999958
0.999994
0.999969
0.999976
0.99994
0.999925
0.999904
0.999847
0.999846
0.99986
0.999843
0.999767
0.994359
0.999822
0.999984
0.999983
0.999982
0.99998
0.999908
0.999748
0.999746
0.999855
0.999866
0.999799
0.99987
0.996973
0.999857
0.999997
0.999994
0.999988
0.999968
0.99853
0.99935
0.999842
0.999985
0.99999
0.999965
0.999909
0.997197
0.999865
0.999996
0.999981
0.999995
0.999971
0.999006
0.999697
0.999941
0.999985
0.99997
0.999811
0.999878
0.997228
0.99989
0.999996
0.999991
0.999995
0.999982
0.999675
0.999888
0.999979
0.999966
0.999931
0.999515
0.999538
0.997143
0.999922
0.999997
0.999988
0.999993
0.999973
0.999851
0.999934
0.999979
0.999936
0.999857
0.999511
0.999498
0.996555
0.999951
0.999998
0.99997
0.999961
0.99986
0.999886
0.999958
0.999968
0.999908
0.999705
0.999533
0.999735
0.994783
0.999957
0.999994
0.999974
0.99998
0.999956
0.999955
0.999938
0.999924
0.999867
0.99962
0.999294
0.999645
0.9945
0.99984
0.999978
0.999982
0.999982
0.99998
0.999886
0.999831
0.999889
0.999834
0.999551
0.999294
0.999513
0.996959
0.999902
0.999997
0.999997
0.999974
0.999967
0.999277
0.999382
0.999847
0.999987
0.99999
0.999947
0.999926
0.997283
0.999907
0.999997
0.999981
0.999993
0.999973
0.99925
0.999657
0.999935
0.999984
0.999963
0.99972
0.999824
0.99733
0.99992
0.999997
0.999991
0.999995
0.999983
0.999646
0.999872
0.999979
0.999961
0.999894
0.999505
0.999505
0.99726
0.999936
0.999998
0.999992
0.999993
0.999978
0.999907
0.999918
0.999979
0.999964
0.999705
0.999613
0.999777
0.996724
0.999951
0.999998
0.99998
0.999983
0.999926
0.999956
0.999961
0.999961
0.999937
0.999496
0.999294
0.999685
0.994988
0.999957
0.999993
0.999965
0.999982
0.999962
0.999954
0.999928
0.999927
0.999869
0.999338
0.999294
0.999389
0.994639
0.999855
0.999967
0.999981
0.999981
0.99998
0.999835
0.999812
0.999914
0.999813
0.999305
0.999294
0.999294
0.996804
0.999938
0.999998
0.999998
0.999942
0.999975
0.999849
0.999561
0.999864
0.999987
0.999988
0.999901
0.999864
0.997281
0.999937
0.999997
0.999989
0.999977
0.999977
0.999485
0.99972
0.999937
0.999979
0.999961
0.999712
0.999591
0.997402
0.99994
0.999998
0.999994
0.999995
0.99998
0.99968
0.999884
0.999979
0.999976
0.999889
0.999706
0.999512
0.997342
0.999944
0.999998
0.999992
0.999995
0.999979
0.999912
0.999919
0.999979
0.999979
0.999764
0.99963
0.999866
0.996845
0.999951
0.999998
0.999975
0.999986
0.999961
0.999961
0.999961
0.99995
0.999929
0.999717
0.999295
0.999688
0.995146
0.999958
0.999995
0.999953
0.999965
0.999967
0.999937
0.999916
0.999903
0.999854
0.999569
0.999294
0.999452
0.994766
0.999873
0.999962
0.99998
0.999976
0.999978
0.999819
0.999783
0.999875
0.999883
0.999553
0.999294
0.999342
0.996295
0.999949
0.999998
0.999998
0.99994
0.999981
0.99996
0.999009
0.999796
0.999987
0.999987
0.999887
0.999735
0.997169
0.999949
0.999997
0.999994
0.999954
0.999975
0.999645
0.999659
0.999936
0.999988
0.999962
0.99984
0.999591
0.997409
0.999949
0.999997
0.999991
0.999991
0.999972
0.999727
0.9999
0.999978
0.999993
0.999924
0.999872
0.99972
0.99738
0.999948
0.999998
0.999989
0.999995
0.99998
0.999905
0.999944
0.99998
0.999982
0.999925
0.999696
0.999927
0.996963
0.999951
0.999998
0.999978
0.999987
0.999966
0.999961
0.99996
0.99995
0.99993
0.999887
0.999651
0.999799
0.995301
0.999959
0.999996
0.999952
0.999943
0.999943
0.999914
0.999918
0.999892
0.999872
0.999809
0.999489
0.999699
0.994883
0.999886
0.999969
0.99998
0.999968
0.999975
0.999906
0.999782
0.999823
0.999942
0.999867
0.999373
0.999634
0.996361
0.999952
0.999998
0.999998
0.99994
0.999965
0.999972
0.998879
0.999763
0.999985
0.999987
0.999937
0.999782
0.997089
0.999952
0.999997
0.999992
0.999965
0.999938
0.999773
0.99953
0.999925
0.999993
0.999974
0.999956
0.999763
0.9974
0.999951
0.999997
0.999987
0.999991
0.999957
0.999748
0.999897
0.999977
0.999993
0.999979
0.999928
0.999928
0.997378
0.999949
0.999998
0.999991
0.999992
0.999985
0.999896
0.999955
0.999982
0.99998
0.999967
0.999856
0.999869
0.996976
0.999952
0.999998
0.999984
0.999985
0.999967
0.999903
0.999941
0.999973
0.999942
0.999918
0.99987
0.999767
0.995405
0.99996
0.999997
0.999959
0.999941
0.999918
0.999903
0.999929
0.9999
0.99992
0.999937
0.999845
0.999649
0.994979
0.999893
0.999972
0.99998
0.999966
0.999974
0.999951
0.999783
0.999798
0.999942
0.999959
0.999838
0.999633
0.996306
0.999953
0.999998
0.999998
0.99997
0.999921
0.999969
0.998854
0.999735
0.999983
0.99999
0.999984
0.999941
0.997075
0.999952
0.999997
0.999991
0.999986
0.999901
0.999855
0.999492
0.999903
0.999993
0.999992
0.999966
0.999896
0.99739
0.999951
0.999997
0.999986
0.999971
0.999955
0.999811
0.999891
0.99997
0.999993
0.999987
0.99991
0.999793
0.997369
0.999949
0.999998
0.999995
0.999967
0.999985
0.999906
0.999959
0.999982
0.999979
0.99996
0.999874
0.999421
0.996952
0.999952
0.999998
0.999992
0.999983
0.999969
0.999888
0.999938
0.999981
0.999966
0.99994
0.999883
0.998756
0.995381
0.999961
0.999997
0.999973
0.999929
0.999926
0.999926
0.999937
0.999923
0.999955
0.999967
0.999922
0.99737
0.995046
0.999893
0.999972
0.999973
0.999964
0.999971
0.999957
0.999787
0.999797
0.999938
0.999967
0.999921
0.998619
0.996327
0.999953
0.999998
0.999998
0.999996
0.999919
0.999961
0.999053
0.999723
0.999979
0.999995
0.999988
0.999939
0.997092
0.999953
0.999997
0.999993
0.999991
0.999929
0.999889
0.999568
0.999879
0.999991
0.999995
0.99995
0.999671
0.997377
0.999951
0.999997
0.999992
0.999948
0.99997
0.999905
0.999895
0.99996
0.999993
0.999983
0.999895
0.998275
0.997348
0.999948
0.999998
0.999996
0.999888
0.999966
0.999952
0.999957
0.999982
0.999986
0.999963
0.999865
0.99421
0.996889
0.999952
0.999998
0.999996
0.999957
0.999941
0.999888
0.999948
0.99998
0.999985
0.999965
0.999842
0.988626
0.995309
0.999962
0.999997
0.999978
0.999955
0.999942
0.999918
0.99994
0.999927
0.999966
0.999967
0.999783
0.984387
0.995093
0.999889
0.99997
0.99996
0.999971
0.999969
0.999955
0.999794
0.999805
0.99995
0.999964
0.999734
0.985019
0.996347
0.999954
0.999998
0.999998
0.999997
0.999941
0.99994
0.999373
0.999679
0.999963
0.999995
0.999982
0.999889
0.997128
0.999953
0.999997
0.999997
0.999986
0.999973
0.999912
0.999643
0.999861
0.999989
0.999994
0.999938
0.999237
0.99736
0.99995
0.999998
0.999996
0.999902
0.999972
0.999959
0.999897
0.999954
0.999995
0.999986
0.999894
0.997122
0.997312
0.999948
0.999998
0.999997
0.999887
0.999917
0.999962
0.999953
0.99998
0.999994
0.999977
0.999843
0.992791
0.996777
0.999952
0.999998
0.999997
0.999909
0.999904
0.999888
0.999952
0.99998
0.999984
0.999972
0.999727
0.986974
0.995193
0.999963
0.999997
0.999977
0.999968
0.999952
0.999908
0.999942
0.999926
0.99996
0.999959
0.999432
0.982477
0.995134
0.999881
0.999966
0.99996
0.999973
0.999964
0.999954
0.999816
0.999809
0.999947
0.999961
0.999169
0.977406
0.996447
0.999956
0.999997
0.999998
0.999997
0.999983
0.999896
0.999756
0.999629
0.999947
0.999995
0.999977
0.999849
0.997164
0.999954
0.999997
0.999998
0.999962
0.999993
0.999937
0.999765
0.999859
0.999988
0.999994
0.99994
0.99933
0.997335
0.999949
0.999998
0.999998
0.999887
0.999971
0.999984
0.999881
0.999945
0.999996
0.999991
0.99989
0.998019
0.997256
0.999948
0.999998
0.999998
0.999887
0.999892
0.999971
0.999927
0.999976
0.999995
0.999986
0.999817
0.996108
0.996609
0.999954
0.999998
0.999997
0.999899
0.99989
0.999897
0.999953
0.999983
0.999981
0.999969
0.999734
0.992855
0.995048
0.999965
0.999997
0.999973
0.99997
0.999948
0.999884
0.999949
0.999935
0.999953
0.999947
0.999669
0.991098
0.995186
0.999868
0.999964
0.99996
0.999973
0.999957
0.99995
0.999837
0.99981
0.99994
0.999957
0.999625
0.985991
0.996573
0.999958
0.999997
0.999998
0.999996
0.999996
0.999932
0.999961
0.999665
0.999951
0.999995
0.999977
0.999856
0.997195
0.999954
0.999997
0.999998
0.999946
0.999995
0.999967
0.999908
0.999873
0.999989
0.999995
0.999944
0.999507
0.997297
0.999948
0.999998
0.999998
0.999888
0.999963
0.999987
0.999755
0.999937
0.999997
0.999995
0.999893
0.9988
0.997171
0.999948
0.999998
0.999998
0.999887
0.999887
0.999974
0.999871
0.999973
0.999996
0.999989
0.99982
0.998049
0.996365
0.999956
0.999998
0.999997
0.999911
0.999889
0.999895
0.999952
0.999986
0.999983
0.99997
0.999768
0.996477
0.994859
0.999967
0.999995
0.999954
0.999974
0.999951
0.999883
0.999957
0.999949
0.999955
0.999943
0.999779
0.995931
0.995256
0.999847
0.999972
0.999965
0.999966
0.999948
0.999952
0.99986
0.999833
0.999944
0.999958
0.999792
0.993436
0.996719
0.999959
0.999997
0.999995
0.99998
0.999996
0.999976
0.999988
0.999744
0.999966
0.999996
0.999979
0.999845
0.997201
0.999954
0.999997
0.999995
0.999946
0.999995
0.999989
0.999881
0.999895
0.999992
0.999996
0.999953
0.99961
0.997245
0.999948
0.999997
0.999992
0.999948
0.999956
0.999987
0.999752
0.999941
0.999997
0.999996
0.999907
0.999357
0.99704
0.999948
0.999998
0.99999
0.999887
0.999882
0.999973
0.999864
0.999975
0.999996
0.999991
0.999848
0.998855
0.996029
0.999959
0.999998
0.999995
0.99993
0.999902
0.999879
0.99995
0.999988
0.999986
0.999973
0.999821
0.997979
0.994755
0.999966
0.999988
0.999949
0.999978
0.999952
0.999883
0.999961
0.999958
0.999964
0.999949
0.999833
0.997617
0.995347
0.999824
0.999977
0.99998
0.99994
0.99994
0.999957
0.999889
0.999874
0.999954
0.999959
0.99984
0.99696
0.996868
0.999961
0.999998
0.999952
0.999913
0.999996
0.999996
0.999985
0.99984
0.999983
0.999997
0.999981
0.99984
0.997184
0.999954
0.999997
0.999931
0.999964
0.999995
0.999995
0.999806
0.999915
0.999995
0.999997
0.999963
0.99959
0.997173
0.999948
0.999997
0.999894
0.999962
0.999948
0.999987
0.99975
0.999952
0.999997
0.999996
0.999921
0.999257
0.996823
0.99995
0.999998
0.999976
0.999881
0.99988
0.999968
0.999887
0.99998
0.999997
0.999993
0.999865
0.999034
0.995644
0.999963
0.999998
0.999995
0.999946
0.999926
0.999867
0.99995
0.99999
0.999989
0.999978
0.999849
0.998667
0.994754
0.999959
0.999978
0.999949
0.999979
0.99991
0.999889
0.999962
0.999962
0.999964
0.999953
0.999881
0.998122
0.995463
0.99979
0.999965
0.99999
0.99994
0.999944
0.999964
0.99991
0.99988
0.99995
0.999959
0.9999
0.997853
0.996966
0.999962
0.999998
0.999543
0.999886
0.999997
0.999996
0.999964
0.999907
0.999993
0.999997
0.999981
0.999821
0.997135
0.999953
0.999998
0.999373
0.999959
0.999994
0.999995
0.999746
0.999932
0.999996
0.999997
0.999968
0.999507
0.997055
0.999949
0.999998
0.999749
0.999922
0.999927
0.999982
0.99975
0.999968
0.999997
0.999996
0.999919
0.999237
0.996468
0.999954
0.999998
0.99998
0.999882
0.999879
0.999959
0.99993
0.999986
0.999997
0.999994
0.999878
0.999251
0.995254
0.999969
0.999998
0.999994
0.999967
0.999956
0.999867
0.99995
0.999992
0.99999
0.999979
0.999886
0.999126
0.994757
0.999944
0.999978
0.999949
0.999979
0.999888
0.999889
0.999964
0.999961
0.999961
0.999952
0.999889
0.998602
0.995549
0.999714
0.999938
0.999993
0.99994
0.99995
0.999971
0.999899
0.99985
0.999941
0.999959
0.999894
0.998582
0.996969
0.999962
0.999998
0.999107
0.9999
0.999997
0.999997
0.999837
0.999933
0.999996
0.999997
0.999978
0.999777
0.99706
0.999953
0.999998
0.999129
0.99996
0.999992
0.999987
0.999744
0.999949
0.999997
0.999997
0.999966
0.999506
0.996831
0.999951
0.999998
0.999787
0.999788
0.999877
0.99996
0.99984
0.999983
0.999997
0.999996
0.999917
0.999354
0.995933
0.999961
0.999998
0.999986
0.999921
0.999878
0.999957
0.999968
0.999991
0.999997
0.999994
0.999897
0.999307
0.994858
0.999974
0.999998
0.999985
0.999987
0.999975
0.999867
0.999945
0.999992
0.99999
0.99998
0.999912
0.998927
0.994785
0.999916
0.999987
0.999949
0.99998
0.999888
0.999894
0.99997
0.999955
0.999961
0.999957
0.999884
0.99854
0.995551
0.999635
0.999951
0.999993
0.99994
0.999959
0.999975
0.999869
0.999839
0.999933
0.999959
0.999873
0.998728
0.996936
0.99996
0.999998
0.999103
0.999933
0.999997
0.99999
0.999744
0.999946
0.999997
0.999997
0.999973
0.999765
0.996928
0.999955
0.999998
0.999257
0.999954
0.99999
0.999949
0.999744
0.999967
0.999997
0.999997
0.999961
0.999556
0.996428
0.999957
0.999998
0.999877
0.999887
0.999877
0.999976
0.999925
0.999991
0.999997
0.999995
0.999923
0.999246
0.9954
0.999968
0.999998
0.999989
0.999972
0.999926
0.999969
0.999975
0.999993
0.999997
0.999994
0.999917
0.998204
0.994747
0.999969
0.999997
0.99997
0.999988
0.999978
0.999867
0.999946
0.999993
0.99999
0.999982
0.999907
0.996681
0.994846
0.999871
0.999988
0.999976
0.999985
0.999888
0.999915
0.999976
0.99995
0.999964
0.999963
0.999884
0.99571
0.995499
0.999681
0.999982
0.999993
0.99994
0.999969
0.999977
0.999859
0.999839
0.999942
0.999952
0.999854
0.995721
0.996865
0.999961
0.999998
0.999099
0.999957
0.999997
0.999938
0.999744
0.999962
0.999997
0.999997
0.999973
0.999801
0.996618
0.999958
0.999998
0.999681
0.999927
0.999989
0.999947
0.999794
0.999984
0.999997
0.999996
0.999955
0.999488
0.995812
0.999964
0.999998
0.999957
0.999975
0.999932
0.99999
0.999979
0.999996
0.999997
0.999994
0.999927
0.998121
0.994932
0.999971
0.999998
0.999993
0.999993
0.999981
0.999973
0.999952
0.999993
0.999997
0.999994
0.999924
0.994855
0.994747
0.999941
0.999988
0.99997
0.999988
0.999974
0.999867
0.999961
0.999993
0.999989
0.999985
0.999907
0.991448
0.994933
0.99985
0.999931
0.999985
0.999978
0.999888
0.999947
0.999977
0.999955
0.999964
0.999959
0.99987
0.990335
0.99529
0.999837
0.999989
0.999973
0.999943
0.999978
0.999978
0.999866
0.999902
0.999953
0.999922
0.999756
0.991022
0.996668
0.999962
0.999998
0.999294
0.999959
0.999997
0.999928
0.999756
0.999979
0.999997
0.999997
0.999979
0.999878
0.996018
0.999965
0.999998
0.999938
0.99995
0.999992
0.999975
0.999933
0.999994
0.999997
0.999995
0.999956
0.999629
0.995169
0.999972
0.999998
0.999988
0.99999
0.999988
0.999991
0.999992
0.999997
0.999997
0.999994
0.999931
0.998601
0.994745
0.999964
0.999997
0.999992
0.999991
0.999987
0.999939
0.999941
0.999996
0.999997
0.999995
0.999927
0.995755
0.994763
0.999911
0.999969
0.99997
0.999968
0.999945
0.999867
0.999977
0.999991
0.999988
0.999985
0.999903
0.992458
0.995065
0.999855
0.999895
0.999985
0.999898
0.999888
0.999971
0.999977
0.999956
0.999956
0.999947
0.999807
0.991074
0.994901
0.99993
0.999989
0.999949
0.999971
0.999987
0.999954
0.999879
0.999901
0.999919
0.999879
0.999642
0.990644
0.996098
0.999967
0.999998
0.999808
0.999969
0.999997
0.999968
0.999903
0.999992
0.999997
0.999997
0.999989
0.999959
0.995245
0.999973
0.999998
0.999992
0.999985
0.999997
0.999994
0.999985
0.999997
0.999996
0.999992
0.999955
0.999806
0.994759
0.99997
0.999998
0.999997
0.999992
0.999995
0.999981
0.999982
0.999997
0.999997
0.999995
0.99993
0.999171
0.994745
0.99994
0.999991
0.999988
0.999965
0.999973
0.999867
0.999962
0.999997
0.999997
0.999995
0.999922
0.99738
0.994842
0.999884
0.999954
0.999985
0.999921
0.999867
0.999867
0.999986
0.999989
0.999986
0.999981
0.999886
0.995665
0.995141
0.999851
0.999962
0.99998
0.999914
0.999899
0.999973
0.999971
0.999943
0.999936
0.999923
0.99973
0.994715
0.99438
0.999872
0.999989
0.999949
0.999981
0.999992
0.999922
0.999847
0.999768
0.999835
0.999814
0.999594